LAMMPS data file via write_data, version 24 Dec 2020, timestep = 1000

5184 atoms
2 atom types

0 37.3341 xlo xhi
0 37.3341 ylo yhi
0 37.3341 zlo zhi
0 0 0 xy xz yz

Masses

1 15.9994
2 1.00794

Atoms # atomic

1 1 12.646715237058341 2.618395034612975 2.7398850138595052 0 0 0
2 1 5.342793895778391 5.485705895787744 2.493980944314178 0 0 0
3 1 11.982892452574582 7.4865228595695825 2.4543252846404413 0 0 0
4 1 2.8743801113343372 4.347242484722737 4.4073104251765365 0 0 0
5 1 4.02622503973408 11.917747795226886 11.785780859580495 0 0 0
6 1 7.2684586183625735 0.4013167529420581 2.2210323409173123 0 0 0
7 1 5.670431200775562 10.070306098597976 10.369258115552894 0 0 0
8 1 5.815314381865394 10.711227560441522 1.3430720000711884 0 0 0
9 1 9.48206396982283 11.80831227219623 1.0138560044145517 0 0 0
10 1 11.855581951629299 0.5290949489662232 8.95367628032785 0 0 0
11 1 5.515544070769664 7.603071547321381 11.275048960922568 0 0 0
12 1 3.8860331614503183 3.299426989625121 1.491118980321419 0 0 0
13 1 12.032826638254482 10.345933336910434 4.805232104509293 0 0 0
14 1 3.873552681324589 7.806237094488664 2.683380920417964 0 0 0
15 1 9.47116361344824 9.688630111570122 10.1206032683324 0 0 0
16 1 11.339783626583507 5.5025115719547815 5.414311422851078 0 0 0
17 1 1.3348872269812682 3.353552295070765 0.24223423551977225 0 0 0
18 1 1.4346126381933075 6.605456433719979 4.82138542698587 0 0 0
19 1 10.093381968709643 9.933615230173794 2.950925084232245 0 0 0
20 1 8.432258804203293 5.4450370466144165 10.22351278038381 0 0 0
21 1 8.972279183397756 4.701378617089693 1.8873290436002206 0 0 0
22 1 2.963029953455269 3.1639559314211456 8.435793342775135 0 0 0
23 1 4.893170563018779 7.002915435180504 7.353920865491048 0 0 0
24 1 4.255762639173983 10.363910998744029 3.5493955434289237 0 0 0
25 1 5.485655818865584 4.361481099402031 4.726794476720003 0 0 0
26 1 12.18616530471959 2.273182858672308 11.193265015977184 0 0 0
27 1 7.6543042588054195 9.073888851446041 3.5663432246284215 0 0 0
28 1 5.738659259357029 5.455593785804103 9.619317554148799 0 0 0
29 1 2.1415193016717904 7.209318108123697 7.342502610832522 0 0 0
30 1 10.222127665508252 7.542956354999684 6.817349680213355 0 0 0
31 1 7.492562164385784 3.9255490136996003 6.612949172730144 0 0 0
32 1 5.330393588333354 2.5700221580393725 11.985296299354008 0 0 0
33 1 1.916248936924576 11.718372324395883 3.7166200311739295 0 0 0
34 1 2.060323802106041 5.607952343450278 9.436387034188046 0 0 0
35 1 7.011060208277666 8.478438710326863 0.8796617515782529 0 0 0
36 1 12.356803480958046 6.477225907271183 10.433539017343854 0 0 0
37 1 5.59195316831658 2.464532013070922 8.027001475167166 0 0 0
38 1 7.915391510805781 0.9628903003512566 9.207619637801548 0 0 0
39 1 1.041644663538561 2.0537392268249066 7.030595690752925 0 0 0
40 1 9.54402302865217 2.2306644232912305 5.972552391127633 0 0 0
41 1 9.058621094616793 2.9047862837410934 10.842079413767989 0 0 0
42 1 1.8608855963917246 8.464349296636675 1.2353673647998482 0 0 0
43 1 11.32900458412633 3.701822586980966 7.213025585265212 0 0 0
44 1 11.863406243486738 0.7662921861624564 0.963002770306316 0 0 0
45 1 7.833319232417079 2.7088556750328814 0.6246538917257506 0 0 0
46 1 8.905488575586574 9.726265898512306 7.5151586628022 0 0 0
47 1 2.0835505398875225 10.97761182419774 7.501279227730546 0 0 0
48 1 7.729114657313423 11.584326341738711 4.7374151453676525 0 0 0
49 1 6.244956786243708 9.340985070625663 7.816537015785838 0 0 0
50 1 7.809097708495165 11.372501800477565 11.177067704625523 0 0 0
51 1 5.578012767222465 0.7420864369893311 5.9552314835373075 0 0 0
52 1 1.6877525556401072 11.260957754795932 0.9900087795043682 0 0 0
53 1 4.664433471217604 10.945393352452601 6.116822156984193 0 0 0
54 1 10.647299844715636 6.281441462204973 0.4885846810635996 0 0 0
55 1 1.1979292633281993 11.320042885378733 10.13648729689737 0 0 0
56 1 5.70879141973795 1.9191381651574753 3.677690578523477 0 0 0
57 1 8.679358412591617 7.735214558893432 11.52619544091259 0 0 0
58 1 10.523261474385778 5.629238340861923 8.739369701179367 0 0 0
59 1 2.9231834426416463 7.020222719819428 11.66830644401695 0 0 0
60 1 36.98706903563035 9.21618784943195 10.316319997539512 -1 0 0
61 1 9.513934736449416 12.466019267466239 7.5346988467784985 0 0 0
62 1 1.5220476536051841 1.5917110181705132 4.580723699674896 0 0 0
63 1 10.46581596305424 3.598032977030948 3.7553340329862137 0 0 0
64 1 0.33106758906090844 9.053408535605625 7.802660858310732 0 0 0
65 2 11.543697763543868 3.2211785771099724 3.2220820896462667 0 0 0
66 2 5.389691901746198 5.2883695772272565 3.849005116757439 0 0 0
67 2 37.111393409195564 7.418019656472933 3.342840376798009 -1 0 0
68 2 4.111147530213845 4.135239300189604 4.807747618484697 0 0 0
69 2 3.0412430573346207 11.825120156268929 11.673116617113477 0 0 0
70 2 6.787503020262504 11.745388692888213 2.0390114731880793 0 0 0
71 2 5.434865993389961 9.194710366548751 11.003943216219552 0 0 0
72 2 6.5494436094473585 9.597678269134835 0.988740509362081 0 0 0
73 2 8.915160587300221 11.65335659012825 0.20810703084268203 0 0 0
74 2 0.03952793816008823 1.1917134572120132 8.233183151743484 0 0 0
75 2 5.5440830406904675 6.725326509455198 10.858024993302221 0 0 0
76 2 4.283273848565866 4.53063824284049 1.691238529235471 0 0 0
77 2 11.125040416389968 10.386404496060681 4.494539229134657 0 0 0
78 2 2.5534014280717328 7.880431711759684 2.1034060736845195 0 0 0
79 2 8.848933243279214 10.460863549349577 10.655309687070378 0 0 0
80 2 11.569895874974332 4.392469079354178 6.397754683947851 0 0 0
81 2 0.6286030504168033 3.150487935411404 12.290551175175633 0 0 0
82 2 0.5185198097971949 6.2039727041554045 4.9558890283069355 0 0 0
83 2 9.122911230510763 9.534903301347335 3.0846242211158397 0 0 0
84 2 9.41843621277635 5.493502494617298 9.55303408439088 0 0 0
85 2 8.601243378447002 3.924637317683677 1.211494090804027 0 0 0
86 2 3.8695759743602895 3.105445980759327 8.183288179514546 0 0 0
87 2 5.041482024438137 6.013558638942933 8.242571954464044 0 0 0
88 2 4.962737872927715 10.415883244090548 2.8764112224518907 0 0 0
89 2 6.484716045535203 4.211852866497871 5.7169947634413685 0 0 0
90 2 12.10012173794896 1.2748370051723146 12.204058133371277 0 0 0
91 2 7.29789186285916 8.299959490826145 2.4384795791529936 0 0 0
92 2 5.404248632114737 4.5613463410851605 9.839387057623892 0 0 0
93 2 3.2694074256084713 7.425037240433255 7.561035955066327 0 0 0
94 2 10.951799669637442 8.134577553127025 6.966009046860039 0 0 0
95 2 8.597862936209633 3.0367807968355938 6.314216050668666 0 0 0
96 2 4.565957548923547 3.1159051206618114 12.90326263886607 0 0 0
97 2 1.1611980338855268 11.37449302793694 4.274496580383969 0 0 0
98 2 1.0457946300360867 5.917598182573042 9.801460595115348 0 0 0
99 2 8.018030372939386 8.364813616984662 0.0713917671933937 0 0 0
100 2 11.917420929225782 6.220058411653826 11.206822442204048 0 0 0
101 2 5.529839331193482 1.6199056898373938 7.005791657032909 0 0 0
102 2 8.525023539590816 2.016340411036169 10.104982720338525 0 0 0
103 2 1.8931209398165518 2.4391948735301767 7.539801910914345 0 0 0
104 2 10.11478686270821 2.7351810674596124 6.374719547563251 0 0 0
105 2 8.601027127506358 3.7253875862988837 10.477361869444433 0 0 0
106 2 0.542091478864801 8.450600363382126 2.036851005958171 0 0 0
107 2 11.209394880689052 4.4846667247412 7.876099268748702 0 0 0
108 2 10.684655208817881 12.51897469949191 0.9261614385480185 0 0 0
109 2 6.554320768840534 2.668043267698536 12.544248411061817 0 0 0
110 2 9.310063886389754 10.547085063166266 7.600281096770243 0 0 0
111 2 1.6053839375427141 11.76615544596084 7.35680239800443 0 0 0
112 2 7.003140168017973 12.110832200543944 5.088509620946643 0 0 0
113 2 5.854826700355474 8.509079171946043 7.657746381998 0 0 0
114 2 7.951178126615551 12.084024116856567 10.630607421117057 0 0 0
115 2 5.061240110257522 37.235069989794724 5.887023164557365 0 -1 0
116 2 0.84728900779681 11.115725571934382 0.3978003835067429 0 0 0
117 2 4.884878906540681 10.52956671545864 4.965292005616788 0 0 0
118 2 11.249560836270568 6.748671196109833 1.2356886004821455 0 0 0
119 2 1.8918528807814883 11.042266626428503 9.408256812866282 0 0 0
120 2 4.9740122534210025 1.9149909711849056 3.1753684218733893 0 0 0
121 2 8.944157967378104 8.674232019299446 10.579322402576189 0 0 0
122 2 11.053645710899428 6.141837641556013 9.29578926029008 0 0 0
123 2 2.752682737752835 6.90652070527372 10.736673837659811 0 0 0
124 2 36.99748157802759 9.129773400793486 8.917829080833188 -1 0 0
125 2 8.8483652164589 13.11650185933656 8.457480206569267 0 0 0
126 2 1.9416509068931906 0.864084082272286 4.180546223881298 0 0 0
127 2 10.714143109851769 4.43799902495163 4.3298417603035455 0 0 0
128 2 1.4308115429004762 8.473399651426687 7.475340966910637 0 0 0
129 2 12.990002231976728 2.990802849868335 1.8849722404990463 0 0 0
130 2 6.0997340036139915 5.965176500862369 2.3056148257635716 0 0 0
131 2 11.478139893771292 8.351026188460592 2.6641769416960353 0 0 0
132 2 2.297178537456453 3.535391263001365 4.630971878646727 0 0 0
133 2 4.505110190350339 11.220398676594732 11.052640121371905 0 0 0
134 2 7.452669705160496 12.159880393653145 3.4261277898936635 0 0 0
135 2 5.749835503953877 9.86357782342427 9.312130173951944 0 0 0
136 2 5.2944255357897445 11.17232602097015 0.7553344472366773 0 0 0
137 2 8.414002314149691 12.54491876348428 1.6222074521842367 0 0 0
138 2 11.667037490915218 1.3654449246692641 9.34805588539972 0 0 0
139 2 4.116370415273665 7.477582194078047 11.491799891267668 0 0 0
140 2 2.974963377500632 3.2938824003168445 1.5114867334411233 0 0 0
141 2 11.940957329526151 9.805588625249106 5.619842750480811 0 0 0
142 2 4.410943702064608 7.129948172108627 3.037984896126183 0 0 0
143 2 10.858742242336923 9.598667127282946 10.126676690900412 0 0 0
144 2 11.017586849143463 6.249841994226466 5.875553153756039 0 0 0
145 2 1.6789408416046612 4.0824651537670125 37.13551177223557 0 0 -1
146 2 2.139368754435027 5.466172470390588 4.386498930793707 0 0 0
147 2 9.869595176461216 10.460029648535597 2.1496684083801476 0 0 0
148 2 8.390805001870978 6.589667091768665 10.763597343296652 0 0 0
149 2 9.72311953218326 4.319098316595673 2.871352343585865 0 0 0
150 2 2.777799177624239 4.059014965837754 8.675727562339855 0 0 0
151 2 4.4617289246737855 6.630890634813104 6.579966995850533 0 0 0
152 2 4.033079029714256 9.036838220367224 3.2381777088314156 0 0 0
153 2 5.382310353616699 3.5375873903710424 4.330375377162806 0 0 0
154 2 11.294711630297938 2.7214289915405603 10.961835961672904 0 0 0
155 2 7.9006960972687414 8.369229730703195 4.15070526641263 0 0 0
156 2 7.1539745278125695 5.31795359547667 9.9224930372297 0 0 0
157 2 1.6964133869977474 6.811834927258636 6.125816289619368 0 0 0
158 2 9.388270634928958 8.629765597292263 6.894634162884026 0 0 0
159 2 7.68713055392126 4.738107754783334 6.992401846497935 0 0 0
160 2 4.834283082885148 1.7739925266719072 11.695915242316635 0 0 0
161 2 3.0881448508005467 11.16298002147622 3.705042253640951 0 0 0
162 2 2.0102101848345604 6.366685433212688 8.363261636768325 0 0 0
163 2 6.112098371896889 7.85038697238388 0.08744010883148937 0 0 0
164 2 12.47548810010813 7.764906963107563 10.504418894602777 0 0 0
165 2 6.483222741991329 2.968635180635773 7.566885819244476 0 0 0
166 2 7.0433773029895494 1.3168011905459367 8.891904738806836 0 0 0
167 2 0.9939087820190432 1.793175742886605 5.732640918737339 0 0 0
168 2 9.7885443530714 1.0583118780924474 6.570847725991672 0 0 0
169 2 8.500966688401762 2.6965631294869237 12.039844673761122 0 0 0
170 2 2.2111179447629334 9.318095160084004 1.0610426509614768 0 0 0
171 2 12.221323478723972 2.7649956348334555 7.238347590712606 0 0 0
172 2 11.946845565327646 1.4354956747918668 1.6856364234484085 0 0 0
173 2 8.022069421379918 1.9112878448231967 1.179953554426219 0 0 0
174 2 9.356149781637601 9.75682208894637 8.800499676717195 0 0 0
175 2 3.1214435511118452 11.015507278379847 6.554753821571404 0 0 0
176 2 7.491192521833284 10.256357675938963 4.262647906407332 0 0 0
177 2 7.225911563179012 9.377349003805753 7.567352455827566 0 0 0
178 2 6.727786584394811 10.761754155220112 10.65453352841039 0 0 0
179 2 5.703078786431155 1.3030767327878283 4.954252340096051 0 0 0
180 2 1.565535230382358 11.662348409114031 1.8235142280237935 0 0 0
181 2 5.381447427731268 10.746181387581466 6.58467612702024 0 0 0
182 2 9.808314368600723 5.58564240039838 1.295534782932216 0 0 0
183 2 0.48918095938578465 12.312617997398803 9.580762981135017 0 0 0
184 2 6.67287412266769 1.2456283554325245 3.055424696103266 0 0 0
185 2 9.587115122236897 6.8804217309014435 37.25209746446167 0 0 -1
186 2 10.244790238837147 6.353753733955195 7.898265302899479 0 0 0
187 2 2.067647919089874 7.823443333860728 12.415770482446254 0 0 0
188 2 0.3010089937656289 10.096465472146772 10.265594470518398 0 0 0
189 2 10.353427275046952 12.421647214128162 8.039812102457072 0 0 0
190 2 0.6925087549219707 1.985410412813822 3.501335186390859 0 0 0
191 2 10.087141361801397 2.648048613122145 4.877628707780999 0 0 0
192 2 0.7272162252588242 9.964930706746518 7.740190642635224 0 0 0
1729 1 12.4403667187584 2.721035470128251 14.778182914512245 0 0 0
1730 1 5.717627999943477 5.502203845075534 15.151958631016871 0 0 0
1731 1 11.948716886936833 7.656314333739407 14.89129692242388 0 0 0
1732 1 2.6776801709462883 4.49453395478781 16.76008356746201 0 0 0
1733 1 4.284480415089408 11.838673317248483 24.26160178081042 0 0 0
1734 1 7.562188571771592 0.18854843885361322 14.577807798858592 0 0 0
1735 1 5.65662946901456 9.995793919690119 23.040691938119572 0 0 0
1736 1 5.671026304157481 10.908762471689407 13.7826953416612 0 0 0
1737 1 9.514499128910082 11.790829360777241 13.31403621335079 0 0 0
1738 1 12.24794150857474 0.40230745559096903 21.19826170715453 0 0 0
1739 1 5.302903280781736 7.587730322813458 24.059109668407423 0 0 0
1740 1 4.489864939774868 3.4693532131701117 14.222213905717556 0 0 0
1741 1 11.867666753249834 11.21667965931032 17.317905291925083 0 0 0
1742 1 3.694389228095127 7.845090314971175 15.594482799566906 0 0 0
1743 1 9.482254310024302 9.657409992336394 22.60765945304162 0 0 0
1744 1 11.110390767128324 5.329249408371177 17.639720145690667 0 0 0
1745 1 1.3247377287348296 3.5661266805242318 12.756470241806506 0 0 0
1746 1 0.9450002219099051 6.6787217565079295 16.985881181439968 0 0 0
1747 1 10.291786133593018 9.783950266338733 15.284436861697078 0 0 0
1748 1 8.096248727218867 5.429199570853369 22.80134754268799 0 0 0
1749 1 8.065142999941534 4.943804696110089 14.295784043256441 0 0 0
1750 1 2.701730836682799 2.6983837473528647 21.14949426735998 0 0 0
1751 1 4.79431534885929 6.868524347387465 19.509430556215996 0 0 0
1752 1 4.2872655687063554 10.397125490992883 15.951275505203025 0 0 0
1753 1 5.625356085094507 4.584014046300019 17.601649723272644 0 0 0
1754 1 11.630034085960661 2.047357328048124 23.756267078265733 0 0 0
1755 1 7.880076461366961 8.800518953166579 16.04796177966727 0 0 0
1756 1 5.7250322497269694 5.356284685211341 21.59271517949501 0 0 0
1757 1 2.218045944523537 6.794892757563478 19.195287820858727 0 0 0
1758 1 10.473478649513696 7.5844723045151605 19.151924003173715 0 0 0
1759 1 7.607062629975073 4.003023699958136 19.230596870218932 0 0 0
1760 1 5.452478489226307 1.7420917844046986 24.220136272879703 0 0 0
1761 1 1.970894279143425 11.723016242183277 15.902776061681005 0 0 0
1762 1 2.1108458244175936 5.267287638251554 21.456497510397487 0 0 0
1763 1 6.896237642847045 8.433019878241515 13.246193301032626 0 0 0
1764 1 12.174056904367642 6.340807441050755 22.727827536569894 0 0 0
1765 1 5.853709365818362 2.2692490435906505 20.63310990184194 0 0 0
1766 1 7.912331910072333 0.9049878698049401 21.74021361643006 0 0 0
1767 1 0.9039945367121671 1.8976150379449366 19.49961177884411 0 0 0
1768 1 9.501504989254885 2.3476151402173127 18.518568788103106 0 0 0
1769 1 9.180419574227846 2.9967471966995616 23.212940709352598 0 0 0
1770 1 1.6411692998184764 8.495224077707022 13.520966513219568 0 0 0
1771 1 11.506263470740365 3.689595774518542 19.653757807486492 0 0 0
1772 1 11.94126749789506 0.5738795906593149 13.293840455720213 0 0 0
1773 1 7.732300543531408 2.573641402399286 13.088373887452487 0 0 0
1774 1 8.952305846078566 9.640565495614922 19.856253789416282 0 0 0
1775 1 2.37140142046495 11.323834847705914 20.030393944021114 0 0 0
1776 1 7.625370162781546 11.768501939887217 17.1012972200794 0 0 0
1777 1 6.23485084694248 9.708382239645932 20.299594896740746 0 0 0
1778 1 7.898235951546186 11.552010106934464 23.702904438487504 0 0 0
1779 1 5.673576017647974 0.7887494102833915 18.40288400340033 0 0 0
1780 1 1.2311510963247327 11.119604450328653 13.544921585628005 0 0 0
1781 1 4.416860329840922 10.64191787609365 18.49715180939324 0 0 0
1782 1 10.840213619457263 6.3036396201641125 12.891719156712211 0 0 0
1783 1 1.5075987675290017 11.312663698087933 22.650033190446287 0 0 0
1784 1 5.684485281468907 1.9711862597863237 16.013851593458437 0 0 0
1785 1 8.929572769525256 7.534645213512486 24.214347684490964 0 0 0
1786 1 10.103783527914283 5.620699475556708 21.15985415289878 0 0 0
1787 1 2.7392247916786054 7.045823326609331 23.872170363668822 0 0 0
1788 1 37.06349883915175 9.09470899405658 22.224866739290935 -1 0 0
1789 1 9.782715385291121 12.464130529996424 19.942457855428863 0 0 0
1790 1 1.6850948697944026 1.6589314859606783 16.976576228594425 0 0 0
1791 1 10.285118038955062 3.686558303863484 15.96825212537934 0 0 0
1792 1 0.5731727240713431 8.829539729988452 19.723198615053175 0 0 0
1793 2 11.527283685891888 3.2161590550211985 15.237618694034218 0 0 0
1794 2 5.604199778927851 5.184687124426973 16.125879111883048 0 0 0
1795 2 37.12617888327453 7.478959933035502 15.850493723572725 -1 0 0
1796 2 3.523151853817062 4.897637669492438 17.083634839526308 0 0 0
1797 2 3.455501949574686 11.5439493786801 24.340565168834477 0 0 0
1798 2 6.4829531487189875 12.017531910691618 14.321838881251654 0 0 0
1799 2 5.603005281475859 8.93549788540565 23.10319511785066 0 0 0
1800 2 6.376377830302815 9.649328986539984 13.6456259332191 0 0 0
1801 2 8.860562382777024 11.704168969356795 12.616932446212092 0 0 0
1802 2 37.11478473008582 0.8184326055416901 20.767189425694017 -1 0 0
1803 2 5.944706120388993 6.964329440088759 23.55374218203798 0 0 0
1804 2 5.06012916951172 4.5607820385507045 14.50878784534985 0 0 0
1805 2 11.220175224312788 10.62040833876355 16.788069658772514 0 0 0
1806 2 3.0017714345378033 7.980291440364823 14.53434339189895 0 0 0
1807 2 8.624145635253171 10.674548765369803 23.003312242162675 0 0 0
1808 2 11.410447736068633 4.451241508498387 18.609295272495565 0 0 0
1809 2 0.7601260765410631 2.578923789518552 24.159249513340466 0 0 0
1810 2 37.10214350549214 6.204559099418376 17.2782009990512 -1 0 0
1811 2 9.379904084236564 9.261322166056315 15.545077134867286 0 0 0
1812 2 9.123714211356548 5.818398305859218 22.160183654459036 0 0 0
1813 2 7.79302755153862 4.055873025213135 13.87661627969241 0 0 0
1814 2 3.608880231070857 2.8463404064762456 21.199355375203446 0 0 0
1815 2 5.144692059559593 6.110559408049018 20.569553514653677 0 0 0
1816 2 4.935610434803374 10.87814430596942 14.86987466961126 0 0 0
1817 2 6.782202020320484 4.531361068160863 18.320008680468018 0 0 0
1818 2 11.421505645480062 1.3134789780276712 24.432998846712536 0 0 0
1819 2 7.435863279148252 8.554214360899143 15.124073965234244 0 0 0
1820 2 5.353418493614791 4.591677750511092 21.872420964546272 0 0 0
1821 2 3.5242877223613394 7.0909136421774255 19.24542303461834 0 0 0
1822 2 11.351281197762884 8.03555192202638 19.4550013362324 0 0 0
1823 2 8.381322343085326 3.1012560756535397 18.602215567181872 0 0 0
1824 2 4.912601955522544 2.0928365157405424 24.884955853860262 0 0 0
1825 2 1.4474499698033871 11.259495945404531 16.708100149126718 0 0 0
1826 2 1.4010235914889326 5.426342349186105 22.06467917696357 0 0 0
1827 2 7.575263050359494 8.413101475951162 12.68024146514396 0 0 0
1828 2 11.749118190304623 5.866669671849574 23.581545819166358 0 0 0
1829 2 5.775045282538424 1.5494701839099065 19.591495354136125 0 0 0
1830 2 8.234146968740108 1.7377266568456409 21.999493434898742 0 0 0
1831 2 1.7147369077220542 2.1179479582911878 19.96934091963484 0 0 0
1832 2 10.62227976908965 2.808327622430318 19.12083163532331 0 0 0
1833 2 8.866644161420519 3.8820877952281183 22.947248531699255 0 0 0
1834 2 0.4967879022100646 8.081728832047618 14.011932874334178 0 0 0
1835 2 10.942369367606377 4.13631234750966 20.263228784075164 0 0 0
1836 2 10.90832378653806 12.612930897482507 13.124539581985399 0 0 0
1837 2 6.782764185666615 2.0556760739826516 24.528293795054456 0 0 0
1838 2 9.12021591646505 10.643752840092308 19.48101185277803 0 0 0
1839 2 2.1957690693658583 12.17076102461873 19.585726687328066 0 0 0
1840 2 6.786854869360632 12.380325468933417 18.013066456224937 0 0 0
1841 2 5.936650655496797 8.831910848517417 20.28869559605588 0 0 0
1842 2 7.623123836373415 12.512954935811614 22.850685197022173 0 0 0
1843 2 5.105086633023835 37.00464292410588 18.670894452556517 0 -1 0
1844 2 0.323943169812506 11.897819623206702 13.037401461401773 0 0 0
1845 2 4.633007873026271 10.653377676973426 17.185568970602496 0 0 0
1846 2 11.529144350029608 6.743604461707669 13.94082888775459 0 0 0
1847 2 1.960938405116516 11.092872139594586 21.697222785992857 0 0 0
1848 2 5.087045231734811 2.394707374951333 15.283068887439905 0 0 0
1849 2 9.2225111176581 8.190363107067613 23.635123551214278 0 0 0
1850 2 11.28665087868751 5.796216319108727 21.76935914727446 0 0 0
1851 2 2.329052909029983 6.718076706599873 23.064477655825147 0 0 0
1852 2 37.151954779634856 8.998849011332064 21.32180948801601 -1 0 0
1853 2 8.940126712970933 12.634447462244227 20.551462075612775 0 0 0
1854 2 1.9594572658291645 0.4148308174106936 16.51642875901412 0 0 0
1855 2 10.574092069924234 4.40559139136554 16.686491764409052 0 0 0
1856 2 1.590026742005395 7.981392657255351 19.525980175796025 0 0 0
1857 2 12.780219696548617 3.282342854247467 14.018338880227605 0 0 0
1858 2 6.902379023843144 5.186641981795352 14.778392436287108 0 0 0
1859 2 11.29085069942483 8.495218201242098 14.85392588753699 0 0 0
1860 2 2.4410335786424784 3.528640931915165 16.91007907602673 0 0 0
1861 2 4.741049186002763 10.930551492888604 23.52128570881939 0 0 0
1862 2 7.381562349548681 12.104482810316725 15.74251295036105 0 0 0
1863 2 5.681236758812769 10.13877335440156 22.02157481347124 0 0 0
1864 2 5.0837264800146755 11.28013359837281 13.116363166398664 0 0 0
1865 2 8.853277993658384 11.906252224255006 14.069818831703254 0 0 0
1866 2 11.962292809660081 1.2443215620120252 21.53166030525013 0 0 0
1867 2 4.056498182654883 7.276239691673669 23.786359997054547 0 0 0
1868 2 3.470150559554434 3.557354966613804 14.357444791641486 0 0 0
1869 2 12.020634968542584 10.525228835162327 17.959425261121673 0 0 0
1870 2 4.394239073487134 7.139645600707875 15.20338198303814 0 0 0
1871 2 10.48554942455937 9.51984027909291 22.889973638294656 0 0 0
1872 2 10.712570449116175 6.091022071466349 17.90506980180555 0 0 0
1873 2 1.6412973846015457 4.3787330720412045 12.171978826333476 0 0 0
1874 2 1.3731132223241738 6.036255581315944 16.494779651347834 0 0 0
1875 2 9.859229102984665 10.177848869066077 14.439548382144151 0 0 0
1876 2 8.215056310971907 6.1036567774225094 23.397378001995207 0 0 0
1877 2 8.831569926197139 4.788611014974548 15.097111996273952 0 0 0
1878 2 2.23324659660212 3.965195390164895 21.098695430468208 0 0 0
1879 2 4.824651580185298 6.318524774786556 18.774186012026433 0 0 0
1880 2 4.11894296603358 9.096525829727629 15.79916338167849 0 0 0
1881 2 5.524591713309537 3.7393527212008784 17.341943756134995 0 0 0
1882 2 10.602419227257089 2.7897562359868946 23.56674675927694 0 0 0
1883 2 7.322744882866348 8.353470280333859 16.772366628001446 0 0 0
1884 2 7.020898919078407 5.413116067824894 22.093942732699137 0 0 0
1885 2 1.798154360024783 6.841078675374068 17.94646695641675 0 0 0
1886 2 9.517221127792522 8.59620039412671 19.197815386636094 0 0 0
1887 2 7.868078418526768 4.8797063652348855 19.452060374364716 0 0 0
1888 2 4.748945241323984 0.6674783849609656 24.092239305244753 0 0 0
1889 2 3.018830195357088 10.95904090996504 15.658669937830599 0 0 0
1890 2 1.9178547046042824 6.163226710921093 20.546527238864883 0 0 0
1891 2 6.233644333094895 7.775840025559483 12.343391678495005 0 0 0
1892 2 12.141189255086985 7.6069078831029575 22.668290685274687 0 0 0
1893 2 6.164275340208027 2.9713725246466596 20.226758586289847 0 0 0
1894 2 6.965109629837297 1.6021176126832524 21.281307149307196 0 0 0
1895 2 1.1306966417743314 1.665175626373829 18.16900373619153 0 0 0
1896 2 9.652732517448856 1.4171480665946383 18.943799977415345 0 0 0
1897 2 8.502334533444582 2.584035145201818 24.305873323542745 0 0 0
1898 2 1.571977006937412 9.855001894431275 13.55267897708324 0 0 0
1899 2 12.570432835075685 3.019009125372506 19.510593176153886 0 0 0
1900 2 12.041484975550542 1.2850025844420787 13.915899917132245 0 0 0
1901 2 7.4770569863790595 1.871836320640019 13.565510001408269 0 0 0
1902 2 9.43498759642209 9.668835358016745 21.147080393341355 0 0 0
1903 2 3.418875846128831 10.85840136637433 19.240686340448214 0 0 0
1904 2 7.538969385947638 10.79561294810142 17.33986111858289 0 0 0
1905 2 7.120985319489257 9.503528658182143 20.072924586491844 0 0 0
1906 2 7.204125636084617 11.089672960524831 23.681469816428947 0 0 0
1907 2 5.660506431662916 1.420413567835238 17.534223158810537 0 0 0
1908 2 1.5289262840695823 11.646986567214814 14.732860236013902 0 0 0
1909 2 5.136587577358631 10.313086890940689 18.983928948158017 0 0 0
1910 2 10.333792811283327 5.73438490264221 13.440245672754266 0 0 0
1911 2 0.6385292894976756 12.14440141045344 22.22128980073105 0 0 0
1912 2 6.2489226882245 1.4327392306802118 15.490393542097616 0 0 0
1913 2 9.49686359691463 7.419711775966804 12.0896210236337 0 0 0
1914 2 10.242161822304979 6.299146049268824 20.485025047110682 0 0 0
1915 2 2.166091284250706 7.836273981292563 24.68180967625486 0 0 0
1916 2 0.6204483804635 10.204971874033738 22.770519906547644 0 0 0
1917 2 10.789338670403767 12.917911739984268 20.743478608409163 0 0 0
1918 2 0.871942445234565 1.6066833398007083 16.40666653347872 0 0 0
1919 2 9.822115764951512 2.978487227144445 16.399978009620185 0 0 0
1920 2 1.1875474977548837 9.50675887071557 19.69697212870914 0 0 0
3457 1 12.592954350228965 2.539916701660403 27.282273518462574 0 0 0
3458 1 5.722062514616281 5.782289198225918 27.530388477871178 0 0 0
3459 1 12.017698270940214 7.702612863214498 27.35537991962593 0 0 0
3460 1 2.593688263058511 4.309935610120284 29.5723690672731 0 0 0
3461 1 3.9301684579580227 11.938734371141278 37.03975891311185 0 0 0
3462 1 7.153738086325104 37.13174144561839 27.134164771203228 0 -1 0
3463 1 5.888777611835997 10.095734642078906 35.46754560691191 0 0 0
3464 1 5.846025856318031 10.908310411693918 26.241750636138114 0 0 0
3465 1 9.232679888372395 12.001645567845927 26.243148133347727 0 0 0
3466 1 11.935510936457874 0.8253752897408799 33.81051119677112 0 0 0
3467 1 5.3186020408053745 7.643411900725655 36.44032761340626 0 0 0
3468 1 3.852288074110688 3.300909781664768 26.207552474785672 0 0 0
3469 1 12.372084470855114 10.561953710711194 29.730924211525714 0 0 0
3470 1 4.0108230405389325 8.040561486572459 27.29746700574066 0 0 0
3471 1 9.513293711510741 9.672000645128048 35.099976164591844 0 0 0
3472 1 11.27612120344349 5.602541856572345 30.164105308939977 0 0 0
3473 1 0.8904289641821074 3.514387287826892 25.069014512646213 0 0 0
3474 1 1.0409119165062906 6.290599390107951 29.373092642353825 0 0 0
3475 1 10.405474482029025 9.683617406760733 27.724577388044636 0 0 0
3476 1 8.10585394180577 5.458278554221089 35.19143739668388 0 0 0
3477 1 8.698230321136585 5.119274746616844 26.39512048032867 0 0 0
3478 1 2.873078819097057 2.949354373176123 33.78036735071277 0 0 0
3479 1 5.003851294830791 6.720124411270896 32.550401248585835 0 0 0
3480 1 4.224703412796813 10.417080279526392 28.46510319610847 0 0 0
3481 1 5.560348251528942 4.597830616381419 29.950163966601338 0 0 0
3482 1 11.891168257007212 2.4992431057722664 36.27521379451672 0 0 0
3483 1 7.696322905737727 8.737076536687391 28.358561299192104 0 0 0
3484 1 5.463073881791583 5.503667487155885 34.80424705217314 0 0 0
3485 1 2.2481883544341255 6.949795044907954 31.74207589480043 0 0 0
3486 1 10.318832139007228 7.625927742246731 31.711640165404283 0 0 0
3487 1 7.48059477357233 4.0601026657052826 31.75441605504352 0 0 0
3488 1 5.266861654521447 2.7806275164444543 36.759019739902094 0 0 0
3489 1 1.7287821402757413 11.595564358423676 28.570548813727473 0 0 0
3490 1 1.8571235734664444 5.352311783955634 33.76332039418988 0 0 0
3491 1 7.0050706535589065 8.559102544293935 25.816966445392225 0 0 0
3492 1 12.110076097131069 6.377194213541497 35.35073087488134 0 0 0
3493 1 5.403743950604745 2.6516470616744763 32.940231084482534 0 0 0
3494 1 7.816253364933324 0.9342892452374659 34.25185549860807 0 0 0
3495 1 1.2075318985842547 1.9489938928196733 32.01206651644873 0 0 0
3496 1 9.239271838996881 2.3932335534284066 31.14267916646526 0 0 0
3497 1 8.98557025540707 2.8849183953307533 35.51413200089083 0 0 0
3498 1 1.6245966333227995 8.478342372440478 25.874505701405774 0 0 0
3499 1 11.52003776221626 3.7853307674454473 31.88103253381325 0 0 0
3500 1 11.921564716878132 0.5144667208268199 25.840152612667563 0 0 0
3501 1 7.76091116895926 2.447940397720686 25.359462045875553 0 0 0
3502 1 8.961899614551527 9.676423173374108 32.53915389342385 0 0 0
3503 1 2.299599623595257 10.9862305769916 32.14127157520993 0 0 0
3504 1 7.659659922739067 11.231652479997353 29.314105497804753 0 0 0
3505 1 6.236990083668529 9.414915669331208 32.9183313097443 0 0 0
3506 1 7.8983022085540355 11.494917485114327 35.92138874877979 0 0 0
3507 1 5.453150392146413 0.9093343522582167 30.773113391531023 0 0 0
3508 1 1.3634273273142954 11.12444838638964 25.97576610498702 0 0 0
3509 1 4.783209099166174 10.808119119841052 31.054715955251577 0 0 0
3510 1 10.867871150534027 6.1184167947523935 25.25502897365563 0 0 0
3511 1 1.2131947500834002 11.470688734868576 35.38086437619318 0 0 0
3512 1 5.602203811076987 2.1714391221500806 28.353062151032592 0 0 0
3513 1 8.643379948489203 7.629730823322536 36.525212003874266 0 0 0