LAMMPS data file via write_data, version 24 Dec 2020, timestep = 1000

5184 atoms
2 atom types

0 37.3341 xlo xhi
0 37.3341 ylo yhi
0 37.3341 zlo zhi
0 0 0 xy xz yz

Masses

1 15.9994
2 1.00794

Atoms # atomic

1 1 12.654267365162767 2.7333019373956904 2.7198522053361502 0 0 0
2 1 5.3787193330750585 5.50063137733527 2.5009768402882164 0 0 0
3 1 12.030976668592189 7.492917845915554 2.440531850407508 0 0 0
4 1 2.887851318368536 4.299104872663402 4.3917345678909845 0 0 0
5 1 4.016782837338103 11.926959943806898 11.74509341946774 0 0 0
6 1 7.205017260084164 0.3818753252730766 2.2256384808570755 0 0 0
7 1 5.663094816728274 10.045961504046272 10.433083660550558 0 0 0
8 1 5.758862818326617 10.673244259972059 1.355842796226352 0 0 0
9 1 9.452928366533135 11.83086112590443 0.8942516204091296 0 0 0
10 1 11.858446796879022 0.493946565311927 8.997581924987388 0 0 0
11 1 5.464990735025929 7.600652567004545 11.279713478100843 0 0 0
12 1 3.8507852031336305 3.2829963568807914 1.5029711558039713 0 0 0
13 1 12.031830790676993 10.300127070960626 4.861493823767622 0 0 0
14 1 3.9240937830833693 7.835281947358713 2.7122980834440154 0 0 0
15 1 9.436023008160637 9.727387354711643 10.156897930536086 0 0 0
16 1 11.328109476153752 5.494596782267058 5.335091272142737 0 0 0
17 1 1.3038946287091475 3.3029727339320964 0.19474474895211052 0 0 0
18 1 1.4479598376568181 6.550119467672377 4.733745836045114 0 0 0
19 1 10.083127314474781 10.007957643958166 2.97392560855768 0 0 0
20 1 8.391906349461776 5.4522806553946355 10.225903860554254 0 0 0
21 1 9.037382726358103 4.72817180563449 1.837871725093473 0 0 0
22 1 2.9854379130580284 3.192535115911252 8.47288309566481 0 0 0
23 1 4.838235727823288 6.992248324859844 7.405716483285001 0 0 0
24 1 4.187890738887095 10.414952316664765 3.5304852773492192 0 0 0
25 1 5.44691679044731 4.33948165303375 4.715498714070729 0 0 0
26 1 12.252356659770152 2.2823218159677285 11.092110186954386 0 0 0
27 1 7.674851247993667 9.06513827523467 3.576888699679265 0 0 0
28 1 5.733646928942231 5.3897042593636035 9.651137463899252 0 0 0
29 1 2.205492906485758 7.185480889363931 7.370352890639882 0 0 0
30 1 10.228869249681217 7.5309978286227555 6.834775492850978 0 0 0
31 1 7.469597475708996 3.8662221219110746 6.62353834527677 0 0 0
32 1 5.336693298293353 2.4913087833565792 12.008468117863133 0 0 0
33 1 1.9312007114545398 11.703676622363322 3.718787634584608 0 0 0
34 1 2.097462924538677 5.599949079779502 9.42127345472189 0 0 0
35 1 6.963565993207757 8.433832109938182 0.9215507041492561 0 0 0
36 1 12.317204576034213 6.557434279096877 10.452174617508737 0 0 0
37 1 5.524134950916471 2.4793032792629535 7.998944125826189 0 0 0
38 1 7.9534147495581315 1.0408285146190313 9.11171521423315 0 0 0
39 1 0.9898368312812076 1.981123348476999 7.095765346097975 0 0 0
40 1 9.456109900334122 2.205868610085223 6.026373761949941 0 0 0
41 1 9.027360967251067 2.8623533664881498 10.880043750363361 0 0 0
42 1 1.7710269237601421 8.433754464365805 1.220132133799159 0 0 0
43 1 11.261086329415143 3.7103751169502663 7.267175262319761 0 0 0
44 1 11.85746219660394 0.6682818887149864 0.922872778399275 0 0 0
45 1 7.842395150511062 2.6612489673401853 0.645183388637511 0 0 0
46 1 8.966756463153162 9.728977918886118 7.478075442635361 0 0 0
47 1 2.118481367786456 10.998039350820315 7.5206021497534365 0 0 0
48 1 7.724984417728803 11.563448412186842 4.729421083658439 0 0 0
49 1 6.238921082594347 9.350673420153933 7.699507003125628 0 0 0
50 1 7.813892924427011 11.401396208496003 11.20298918515508 0 0 0
51 1 5.569111760105327 0.7692255619877814 5.9642450725382625 0 0 0
52 1 1.7208116569164134 11.223486311779018 0.9408014744292996 0 0 0
53 1 4.65038346107852 10.949191774686895 6.139451218968694 0 0 0
54 1 10.645260366778652 6.307380185109069 0.494684716950663 0 0 0
55 1 1.2517588981488406 11.307839215532068 10.15526733769306 0 0 0
56 1 5.617461224772511 1.9505534096802741 3.651710778816542 0 0 0
57 1 8.756393485846797 7.756353805876141 11.52897104106371 0 0 0
58 1 10.518367152770757 5.66618303643391 8.667695613815443 0 0 0
59 1 2.8931372789000185 7.025774262102689 11.708313409478714 0 0 0
60 1 36.97227972534575 9.189079390525285 10.308199453456863 -1 0 0
61 1 9.516735938138385 12.430240094957936 7.567944087718297 0 0 0
62 1 1.589789381829036 1.5562069444207594 4.5349064191881565 0 0 0
63 1 10.486232864496806 3.572832461795717 3.739529047711611 0 0 0
64 1 0.32239783457779525 9.101557118344397 7.721474725359917 0 0 0
65 2 11.517680071653992 3.3470310890387807 3.029303499574761 0 0 0
66 2 5.692407052579825 5.256310700142001 3.6916826667475395 0 0 0
67 2 37.30138157584941 7.528568070823832 3.277949612298998 -1 0 0
68 2 4.073843483709639 4.388669866026974 4.992986257623846 0 0 0
69 2 3.1064629597321507 11.968108395690123 11.60832458244808 0 0 0
70 2 6.680706971517791 11.80648586481741 1.8580708361072398 0 0 0
71 2 5.705662528327103 9.158615214979092 10.916206584460868 0 0 0
72 2 6.523287012839388 9.681780933168762 0.8092415819889904 0 0 0
73 2 8.821255727195107 11.571086106448979 0.18752430872252077 0 0 0
74 2 0.13053587889710394 1.405180687186553 8.248008260852247 0 0 0
75 2 5.657358916616868 6.977845553088494 10.662572208626523 0 0 0
76 2 4.332659529937243 4.269770323949518 1.724677010999985 0 0 0
77 2 11.088640002105464 10.044459828850446 4.434072341852441 0 0 0
78 2 2.5724979220762196 7.691586034857709 2.2415150973407068 0 0 0
79 2 8.651329690134814 10.455541273838586 10.841132638618134 0 0 0
80 2 11.481528534150646 4.371275005122863 6.220274107140987 0 0 0
81 2 0.7909806667590519 2.979225316333614 12.070802118942874 0 0 0
82 2 0.5570675972177641 6.125474734362775 4.906985130689351 0 0 0
83 2 9.244164286721066 9.761375116395897 3.3913831432169035 0 0 0
84 2 9.309928697645297 5.3454130359420144 9.657575738579217 0 0 0
85 2 8.519116904648474 4.036892277800782 1.4089048036195584 0 0 0
86 2 3.9515800417797835 2.9880572946116617 8.330425913236814 0 0 0
87 2 5.104872362293615 6.096798987259345 8.342803271797244 0 0 0
88 2 5.1296702435429795 10.592594869061275 2.571305399310997 0 0 0
89 2 6.527277962039023 4.15691928971439 5.558662009388347 0 0 0
90 2 11.995132639470448 1.3360505318188332 12.12188007657059 0 0 0
91 2 7.266970950454777 8.606080217586511 2.330440005913715 0 0 0
92 2 5.244352238066881 4.608711460178457 9.79271920566861 0 0 0
93 2 3.1779396477416273 7.280892464809722 7.442099516608136 0 0 0
94 2 10.99657598770966 8.081412238843422 6.952639687787517 0 0 0
95 2 8.52841814447254 3.085293824513038 6.364506216245242 0 0 0
96 2 4.774354132761 3.0701297048072047 12.979368354903027 0 0 0
97 2 1.1257552714748698 11.213638527548255 4.106016770537868 0 0 0
98 2 1.1282287141762504 5.71096196767637 9.57098348281654 0 0 0
99 2 7.805699813301934 8.076427207130902 0.007299437561241313 0 0 0
100 2 11.965489043341389 6.0697809923408075 11.213210261668353 0 0 0
101 2 5.465776369266489 1.4384397987725808 7.037364144521314 0 0 0
102 2 8.369428403813414 2.0230141084391344 9.84613901423093 0 0 0
103 2 1.8506178934199888 2.255492864651482 7.49998059007497 0 0 0
104 2 10.081831685854965 2.7343040381419033 6.560272032142219 0 0 0
105 2 8.842339404686598 3.6750063305337646 10.521262774595444 0 0 0
106 2 0.4942387203542523 8.268345239761416 1.437565461684274 0 0 0
107 2 11.120860217136448 4.496796348513924 8.01469930638848 0 0 0
108 2 10.730302240389195 12.287428582130573 0.6613263037423337 0 0 0
109 2 6.396040058751683 2.444637781902863 12.72563696792972 0 0 0
110 2 9.1650153412588 10.5937941272288 7.530596450006752 0 0 0
111 2 1.7980354017211362 11.88201444069689 7.376963939062206 0 0 0
112 2 7.067062095287163 12.197489540367265 5.086588324590427 0 0 0
113 2 5.804779971425555 8.294845961843427 7.826092132759818 0 0 0
114 2 8.129099581087278 11.990561771155303 10.528271767191237 0 0 0
115 2 5.116273537084624 37.22188268254184 5.702562884337947 0 -1 0
116 2 1.1042586159109002 11.16775966983686 0.3101845636785344 0 0 0
117 2 4.712053959448476 10.57762743383504 4.922474811017503 0 0 0
118 2 10.925842243805302 6.857496616852787 1.36675858055115 0 0 0
119 2 1.9428747202897674 11.041893519168633 9.557950719911558 0 0 0
120 2 4.9104946717785305 1.6600952356880325 3.1639803544187393 0 0 0
121 2 9.111815708001043 8.496484539618374 10.4426844238741 0 0 0
122 2 11.047627191198758 6.218733234539953 9.225020701173603 0 0 0
123 2 2.79421577421241 6.8902936773487236 10.698595384451545 0 0 0
124 2 0.0665037702007494 9.114052650655982 9.057539274768867 0 0 0
125 2 8.669199000908161 13.153201208623035 8.421781253103033 0 0 0
126 2 1.9944896308430644 0.6761425940433118 4.2105585752391494 0 0 0
127 2 10.727144922624506 4.264477576724229 4.333147285219948 0 0 0
128 2 1.249488335204715 8.216890253807593 7.3760625364275665 0 0 0
129 2 12.767853603500816 3.0417852606662077 1.8889978745308904 0 0 0
130 2 6.311785680292097 5.89020958704488 2.319743739131561 0 0 0
131 2 11.412409568450256 8.480264940507881 2.5478995611369673 0 0 0
132 2 2.4478353292489805 3.41979714626765 4.496511156110349 0 0 0
133 2 4.5205592952889715 11.416516106562955 11.071550170527459 0 0 0
134 2 7.433384074108232 12.30994560746177 3.551100677113076 0 0 0
135 2 6.0733154709845225 9.939665753645567 9.112335068748932 0 0 0
136 2 5.094773646974239 11.131032616771483 0.8336528875156592 0 0 0
137 2 8.621988814378094 12.42140520013306 1.7984597585341433 0 0 0
138 2 11.567440896820067 1.1732451449097554 9.546711026397837 0 0 0
139 2 3.9869821413006274 7.123339356620675 11.415703470278743 0 0 0
140 2 2.938607324103703 3.324864494066686 1.365785204670894 0 0 0
141 2 12.058710834128586 9.776676242859292 5.856314731696107 0 0 0
142 2 4.449492776920448 7.083915249430031 3.001807302367676 0 0 0
143 2 10.678698868058532 9.67581058435977 10.023652130900857 0 0 0
144 2 11.052764660964431 6.287603136445414 5.88841708875862 0 0 0
145 2 1.6222491283578693 4.019782534359265 37.01890968568329 0 0 -1
146 2 1.8965743384272813 5.268146395839195 4.615533890392911 0 0 0
147 2 9.970512830133032 10.528912500025134 2.1135545726158544 0 0 0
148 2 8.469179326361255 6.490253979879428 10.989798668147593 0 0 0
149 2 9.839261034350864 4.278704784217946 2.78581691091252 0 0 0
150 2 2.807851019504877 4.1173609619791804 8.69494311838542 0 0 0
151 2 4.580297838820343 6.50626327343971 6.637929316271728 0 0 0
152 2 4.096183912365153 9.176765818998568 3.102737055455739 0 0 0
153 2 5.656429464019021 3.3958097574580437 4.340898629611591 0 0 0
154 2 11.37712302559005 2.7319285565794433 10.930348339954081 0 0 0
155 2 7.655383562718835 8.5050374797858 4.264755477815473 0 0 0
156 2 7.108520354293095 5.435135105949293 9.931718034092281 0 0 0
157 2 1.8740098976127961 6.782576651874446 5.946619480654774 0 0 0
158 2 9.560640251538821 8.66498830115072 7.010622030968672 0 0 0
159 2 7.625422391819295 4.671066322015811 7.104847311502728 0 0 0
160 2 4.840666647730528 1.78040124369029 11.580133474917345 0 0 0
161 2 3.101163140514362 11.128804572265553 3.715387445998995 0 0 0
162 2 2.163992193554345 6.364303116252496 8.314782173445861 0 0 0
163 2 6.1436649806875 7.79520448401276 0.0642534945029079 0 0 0
164 2 12.242047681297404 7.413573414625281 10.55551795472379 0 0 0
165 2 6.288563010497738 2.832887021383853 7.656861917057467 0 0 0
166 2 7.065456973978885 1.2444146788469648 8.700136874641297 0 0 0
167 2 1.1491489962449135 1.4816638009904781 5.71219750157278 0 0 0
168 2 9.535147081143107 1.0904013837773858 6.596754610666224 0 0 0
169 2 8.267225956675299 2.63357504589071 12.003675962774581 0 0 0
170 2 2.0558477117190948 9.308845452959385 1.2215126854454117 0 0 0
171 2 12.163917275548515 2.7946856694871194 7.269025555819821 0 0 0
172 2 11.967630186976109 1.4989288910159648 1.5379126374573844 0 0 0
173 2 7.966411363468554 1.9274955298016703 1.1654237264220624 0 0 0
174 2 9.116534186593492 9.759105380952585 8.833338562638477 0 0 0
175 2 3.1785921734362264 10.879369799815287 6.838082537801889 0 0 0
176 2 7.22224477330209 10.289372646561274 4.3819108984968596 0 0 0
177 2 7.216295972403333 9.237591326752876 7.7696063098298 0 0 0
178 2 6.642623985910594 10.973570568893706 10.8861280285744 0 0 0
179 2 5.570072299320077 1.3566338981603938 5.08777661349787 0 0 0
180 2 1.562341026185767 11.648526912194582 1.773862755874058 0 0 0
181 2 5.495019130880832 10.46132861130088 6.611491143279448 0 0 0
182 2 9.815345391102182 5.4478752977637255 1.0960618833723854 0 0 0
183 2 0.26038583668995036 12.209839234361764 9.537778398586443 0 0 0
184 2 6.701159350203478 1.3274371584822577 3.016212548892809 0 0 0
185 2 9.51517202676285 6.944663794689346 37.31184367923528 0 0 -1
186 2 10.356089188801835 6.771505583091081 7.839606603143047 0 0 0
187 2 1.988641532590816 8.061041281765595 12.42259239438057 0 0 0
188 2 0.31967190069594587 9.927722578374208 10.31736206115399 0 0 0
189 2 10.321604822254093 12.649867921367726 8.165781681612998 0 0 0
190 2 0.55848692230854 1.9846417774840082 3.7062082573101973 0 0 0
191 2 9.893264482212285 2.78555840020779 4.704417026239679 0 0 0
192 2 0.7938664164887891 9.922551983677563 7.699911249009689 0 0 0
1729 1 12.44597607395392 2.6892685368821603 14.710351471972702 0 0 0
1730 1 5.745716151586261 5.582075502138243 15.144035546073196 0 0 0
1731 1 11.899714068283354 7.665695425530335 14.871038969065808 0 0 0
1732 1 2.661640845884456 4.555331437325697 16.734121334502884 0 0 0
1733 1 4.223922596663606 11.847777643405596 24.30222473647825 0 0 0
1734 1 7.58188620110989 0.2608431219311038 14.562741980622441 0 0 0
1735 1 5.613542359479658 10.018847530345875 23.075433020819233 0 0 0
1736 1 5.721202787632087 10.973660265100904 13.791758739146804 0 0 0
1737 1 9.54576478872526 11.815622669675424 13.334280180762063 0 0 0
1738 1 12.133625962730235 0.4048218407186526 21.185494184801655 0 0 0
1739 1 5.2998993280396745 7.593957720493585 24.03363225653584 0 0 0
1740 1 4.504939649804173 3.4722533600283065 14.300459499121045 0 0 0
1741 1 11.879897102703307 11.174743468100072 17.29017719699718 0 0 0
1742 1 3.7425426708825955 7.87681649901216 15.603960046241141 0 0 0
1743 1 9.478396072209216 9.697794016721643 22.606472694781623 0 0 0
1744 1 11.158165053763435 5.370107167908585 17.605407557167215 0 0 0
1745 1 1.3645560124899911 3.533372645211535 12.717190996232443 0 0 0
1746 1 0.9339145950131138 6.679031319187023 16.97928739147091 0 0 0
1747 1 10.23670671897189 9.739966520273136 15.282157164116438 0 0 0
1748 1 8.09504012825981 5.414146424113854 22.761926601748822 0 0 0
1749 1 8.054096263808988 4.941652041608412 14.243889013331113 0 0 0
1750 1 2.755107043009007 2.631239533947595 21.12465864790971 0 0 0
1751 1 4.768692994553894 6.828083917987439 19.488959711997467 0 0 0
1752 1 4.302747061699408 10.371007753279631 15.95006545115792 0 0 0
1753 1 5.609290624512836 4.611300424766048 17.63408928690971 0 0 0
1754 1 11.562906391852847 2.071466534291067 23.725534824831946 0 0 0
1755 1 7.932402351201585 8.740470449214161 16.06221000819265 0 0 0
1756 1 5.744485265919505 5.381396448979215 21.592328286082818 0 0 0
1757 1 2.264811120576559 6.813180979171479 19.281287103506116 0 0 0
1758 1 10.401072179508963 7.597313306904923 19.210016442882235 0 0 0
1759 1 7.5624561198371 3.9889521271276753 19.196738159843996 0 0 0
1760 1 5.378157775040937 1.7582142436036434 24.18881411510401 0 0 0
1761 1 2.0221313589973717 11.71980728460707 15.996159334110029 0 0 0
1762 1 2.0997112832528435 5.256199559591838 21.47342295907672 0 0 0
1763 1 6.889033839182304 8.446138496640405 13.236488093198792 0 0 0
1764 1 12.126381561529914 6.407126012755487 22.765934947979474 0 0 0
1765 1 5.777379181393142 2.291706231786208 20.6241090579662 0 0 0
1766 1 7.896091332901909 0.862368266605683 21.7033886362774 0 0 0
1767 1 0.874355708357406 1.8475242019813831 19.49848028590166 0 0 0
1768 1 9.524186892596394 2.283454543842425 18.539941414872636 0 0 0
1769 1 9.1631980332121 3.035375347687207 23.26039833337008 0 0 0
1770 1 1.6476931738742877 8.456900244394193 13.571528157146753 0 0 0
1771 1 11.473806040027952 3.7013327377834946 19.647169090123846 0 0 0
1772 1 11.926277117115953 0.5022130869621273 13.307773120342015 0 0 0
1773 1 7.755890966352493 2.521603116554474 13.144477971386486 0 0 0
1774 1 8.993225660346928 9.654145168516605 19.823819978164366 0 0 0
1775 1 2.4329938085412697 11.265835122159862 20.01592924919809 0 0 0
1776 1 7.612421148289059 11.834353550577521 17.083474506152445 0 0 0
1777 1 6.3059137573539035 9.686904589682566 20.29134533726474 0 0 0
1778 1 7.971536517675356 11.581499717273681 23.699956877078733 0 0 0
1779 1 5.736141406679929 0.8026221242872658 18.355511879589304 0 0 0
1780 1 1.2172239137911791 11.105647854161482 13.546326183045423 0 0 0
1781 1 4.453324309450518 10.655736940943331 18.47751253594409 0 0 0
1782 1 10.846152410504656 6.273068431125672 12.812548078279168 0 0 0
1783 1 1.4402159828311163 11.320730815205305 22.649592646425326 0 0 0
1784 1 5.7125567534525805 2.009646027947566 15.906954981711536 0 0 0
1785 1 8.96140493320874 7.503382043875708 24.220969161865053 0 0 0
1786 1 10.063973366871162 5.609342269142158 21.11147868891805 0 0 0
1787 1 2.7477272381955746 7.0969696159029745 23.870516759103985 0 0 0
1788 1 37.05288188304611 9.122736930577997 22.245542349487344 -1 0 0
1789 1 9.800514810528128 12.466096614212171 19.96899168577449 0 0 0
1790 1 1.6302595510054696 1.6917126144889296 16.94006935947453 0 0 0
1791 1 10.285520705281732 3.637033818094805 15.92172216903793 0 0 0
1792 1 0.6041762967044209 8.850050552793029 19.59917283537344 0 0 0
1793 2 11.286136159650694 3.0895940383875495 15.360301914540479 0 0 0
1794 2 5.8360305686646425 5.40371680004508 16.153328899544263 0 0 0
1795 2 37.10423207338572 7.522615470069764 15.752298359394791 -1 0 0
1796 2 3.569522486916421 4.666241042816439 17.123091935233383 0 0 0
1797 2 3.177213186709649 11.575538576669107 24.274646097361252 0 0 0
1798 2 6.765706807535981 11.999321772987715 14.295386449606232 0 0 0
1799 2 5.4569409672920495 8.684106315475082 23.302102001074786 0 0 0
1800 2 6.361419880597865 9.610233592096911 13.551852906644854 0 0 0
1801 2 9.01522028953031 11.567739707158493 12.419450841772692 0 0 0
1802 2 37.1863314096795 0.8282762171048329 20.834322493450003 -1 0 0
1803 2 5.798356498341804 6.931612048628206 23.632814604574833 0 0 0
1804 2 5.068231119461773 4.623661130274647 14.668352992771334 0 0 0
1805 2 11.360504965915911 10.55976642805985 16.62890623773156 0 0 0
1806 2 2.84165417546981 8.04554145257263 14.55555006025487 0 0 0
1807 2 8.733233506706382 10.713353036704355 23.16034310568709 0 0 0
1808 2 11.476248700401865 4.41290277220442 18.27753972625452 0 0 0
1809 2 0.5935936567873886 2.7059611236691867 24.60434079023689 0 0 0
1810 2 36.933235499180135 6.139521823542245 17.358920894595563 -1 0 0
1811 2 9.124112002967673 9.169456128637071 15.874134235537623 0 0 0
1812 2 9.124773709550954 6.0012783350357894 22.033430963691373 0 0 0
1813 2 7.893815433814446 3.9527330456621117 13.942522251825729 0 0 0
1814 2 3.7558995190040387 2.6013945668163823 21.12431113055765 0 0 0
1815 2 5.293333516481963 6.138808978796522 20.481229380893055 0 0 0
1816 2 4.845473140751397 10.851485167282704 14.840540158082003 0 0 0
1817 2 6.698491846579051 4.527960782438402 18.43977898442158 0 0 0
1818 2 11.428432974645585 1.3851842566020454 24.407937186725313 0 0 0
1819 2 7.562068940734762 8.418848201355209 15.154206792581663 0 0 0
1820 2 5.456749593723185 4.5444616435810445 21.80397005086051 0 0 0
1821 2 3.6172842984030065 6.876608716013773 19.269819521522518 0 0 0
1822 2 11.258746655080659 8.16392116157373 19.52584399494112 0 0 0
1823 2 8.214269598833678 3.2369834947161786 18.661743850005497 0 0 0
1824 2 4.790027180011396 2.193709507325751 24.721903105238653 0 0 0
1825 2 1.284306183183776 11.209704751177004 16.560582590452707 0 0 0
1826 2 1.2124923907601788 5.460923847780608 21.882403927441594 0 0 0
1827 2 7.626696720788736 8.24483092649309 12.699639433759238 0 0 0
1828 2 11.72146399155 5.983463767615614 23.625079328904505 0 0 0
1829 2 5.6235078798933875 1.468645229027418 19.535159656501573 0 0 0
1830 2 8.212722647169345 1.7305169603106718 22.129574437990005 0 0 0
1831 2 1.6828959908332999 2.27165409686694 20.004495290112256 0 0 0
1832 2 10.505811831275425 2.833794076520512 19.12932152954416 0 0 0
1833 2 8.744524999637587 3.7743064067889462 22.788750664741517 0 0 0
1834 2 0.5268509289579919 8.138103438136294 14.123372083054472 0 0 0
1835 2 11.22057141183436 4.414254374299147 20.421455054669742 0 0 0
1836 2 10.995900171918048 12.59597653182325 13.112761406394888 0 0 0
1837 2 6.496274978357569 2.2245492899922468 24.745084388162088 0 0 0
1838 2 9.529466978237165 10.433770770362274 19.356290802541604 0 0 0
1839 2 2.012771153816279 12.144322987786342 19.642608549860412 0 0 0
1840 2 6.813635597938245 12.23318192468986 18.001387773604876 0 0 0
1841 2 5.933164125615028 8.755799447639003 20.081275804876807 0 0 0
1842 2 7.646449586552526 12.564778154864225 22.956206529833324 0 0 0
1843 2 5.004467623890852 36.96520853730597 18.45280929555099 0 -1 0
1844 2 0.5847450054920864 11.759197343517886 13.254685678757227 0 0 0
1845 2 4.581886624915773 10.713487395177468 17.19860261146199 0 0 0
1846 2 11.313798219643273 6.828295633984005 13.842857569580636 0 0 0
1847 2 2.1863540390211713 11.290859422428692 21.84940880718227 0 0 0
1848 2 5.177267903090369 2.4675786081002893 15.300858134123047 0 0 0
1849 2 9.085389555942212 8.249028547314062 23.589626657008452 0 0 0
1850 2 11.282334981902796 5.735485252571002 21.812922895802473 0 0 0
1851 2 2.5722226356446383 7.3029904122929015 23.002520100798083 0 0 0
1852 2 37.16193121176992 9.015209771049143 21.31242395676617 -1 0 0
1853 2 9.060686110811274 12.68284323838771 20.48633348249545 0 0 0
1854 2 1.9749823534445552 0.4336718834991539 16.746354322134966 0 0 0
1855 2 10.389299681871373 4.707615959858378 16.796480070551798 0 0 0
1856 2 1.6264017145713896 7.97120771588952 19.32220856775082 0 0 0
1857 2 12.94056793043825 3.2710694822281656 14.0793009401539 0 0 0
1858 2 6.626267851691141 5.3200581540431235 14.79086226727225 0 0 0
1859 2 11.368296383455471 8.523605253453244 14.88968799591887 0 0 0
1860 2 2.4510342383081625 3.315553988774019 16.964800384715428 0 0 0
1861 2 4.672467211016716 11.160372394532425 23.531659039114466 0 0 0
1862 2 7.178958736556327 12.281890627334471 15.739140914571943 0 0 0
1863 2 5.952131221652007 9.971969582088144 22.217256457332073 0 0 0
1864 2 5.11978308891861 11.346152734752327 13.051337801522712 0 0 0
1865 2 9.113370823303912 11.686657490616398 14.255606957241175 0 0 0
1866 2 11.95290626309629 1.090954821547819 21.815862071833806 0 0 0
1867 2 3.9724687274768224 7.407111261245304 23.642945837781646 0 0 0
1868 2 3.5853630363444196 3.584799078126848 14.461793566855436 0 0 0
1869 2 11.950032498747062 10.671024404583568 17.97815683721667 0 0 0
1870 2 4.269323474019974 7.1780083751428885 15.160179899496177 0 0 0
1871 2 10.517100794845126 9.625819088947857 22.526326160794596 0 0 0
1872 2 10.979190822798758 6.103174285230322 18.140598062724596 0 0 0
1873 2 1.6210739217066703 4.434602227071669 12.341917598319268 0 0 0
1874 2 1.402901193192362 5.924411257885434 16.557883767087 0 0 0
1875 2 10.146947443526258 10.323858922739841 14.646315916048648 0 0 0
1876 2 8.282293295597075 6.248871064507868 23.413814482588243 0 0 0
1877 2 8.770100505460645 4.646639415648708 15.026121929677664 0 0 0
1878 2 2.418696352571891 3.9754929777131167 21.12482088153381 0 0 0
1879 2 4.9044778724217375 6.417430086943712 18.707823731665965 0 0 0
1880 2 4.289998281564208 9.211502092123654 15.59810051023515 0 0 0
1881 2 5.449150919194517 3.6455569033394304 17.357491941441186 0 0 0
1882 2 10.425456793955785 2.649656314614787 23.395927246245876 0 0 0
1883 2 7.483041124441142 8.08046844391897 16.65835489322457 0 0 0
1884 2 6.938265326617272 5.380792764876267 22.099987541454478 0 0 0
1885 2 1.8513785567173378 6.551992326819903 17.922710375231226 0 0 0
1886 2 9.606383118260691 8.612868967200638 19.33158562296369 0 0 0
1887 2 8.231493483469865 4.705653162325063 19.56473281032531 0 0 0
1888 2 4.817860213666217 0.6108648477656191 24.05861218411571 0 0 0
1889 2 3.074121535463098 11.049559373203136 16.02578665001617 0 0 0
1890 2 2.019932448920571 6.017579655699525 20.275624585932047 0 0 0
1891 2 6.20406593461329 7.725911121804718 12.430371856151515 0 0 0
1892 2 12.053892433559698 7.717401286721356 22.75614492571254 0 0 0
1893 2 6.246343491531185 2.995243051318134 20.089337580293968 0 0 0
1894 2 6.781730074374156 1.6753951073558417 21.235816029189877 0 0 0
1895 2 1.273411128474442 1.746463229980319 18.181268214524597 0 0 0
1896 2 9.583839088003861 1.4001102806800112 19.000965502339856 0 0 0
1897 2 8.542524147855469 2.701863522917221 24.368277590631976 0 0 0
1898 2 1.516165296113348 9.744327592856436 13.407148096547758 0 0 0
1899 2 12.434095015477105 2.809591670225311 19.39921397944439 0 0 0
1900 2 11.798715645521076 1.57450449325384 14.133171400065537 0 0 0
1901 2 7.694920219691087 1.5595603437361332 13.610608568951976 0 0 0
1902 2 9.683667578943664 9.74245469917967 21.094596038378327 0 0 0
1903 2 3.4881110527519925 10.884137289275632 19.48637772279884 0 0 0
1904 2 7.693029328534964 10.871133526864565 17.11701950583491 0 0 0
1905 2 7.2505091900498515 9.583654699596336 20.08807751232378 0 0 0
1906 2 7.215821789077192 10.983558415001733 23.65306837573248 0 0 0
1907 2 5.357630690578989 1.111585752362884 17.538696221990417 0 0 0
1908 2 1.6194876814126524 11.635999128590935 14.694911717037794 0 0 0
1909 2 5.036776203271714 10.290417127146235 19.166742678394662 0 0 0
1910 2 10.295707921379604 5.713939601184317 13.383751216761734 0 0 0
1911 2 0.5411138162953129 12.162959563165346 22.065101665580492 0 0 0
1912 2 6.425763587466456 1.5880799660493856 15.399708422644986 0 0 0
1913 2 9.613644087082227 7.283771125744823 11.902806466443858 0 0 0
1914 2 9.919427145585892 6.3928517110010885 20.48250626752563 0 0 0
1915 2 2.0232594890000266 7.751357227636515 24.698987247987667 0 0 0
1916 2 0.7489486853730126 10.200869282790878 22.826702450386954 0 0 0
1917 2 10.717094376765766 12.830254079411047 20.78299178516615 0 0 0
1918 2 1.0692801453844767 1.786390725522305 16.225708270371086 0 0 0
1919 2 10.129437829955688 2.855116760139766 16.413015215483785 0 0 0
1920 2 1.204441725742816 9.556099381700909 19.678654978532897 0 0 0
3457 1 12.573287998444426 2.5389360658539375 27.324344758606998 0 0 0
3458 1 5.672884223741094 5.79747442834032 27.458563134920993 0 0 0
3459 1 12.001595130003865 7.683288650075525 27.366592551053046 0 0 0
3460 1 2.6201647155355494 4.340653162200851 29.589713279580554 0 0 0
3461 1 3.9099222186778246 11.946996099008032 36.99124132459511 0 0 0
3462 1 7.177918114648944 37.08299906832043 27.10633241865364 0 -1 0
3463 1 5.821162326976236 10.0998244044622 35.457288800274846 0 0 0
3464 1 5.789023906412499 10.903891981329082 26.224104107891982 0 0 0
3465 1 9.243999139670317 12.033559788288946 26.191176787399765 0 0 0
3466 1 11.880450131142247 0.8720062490849192 33.84587613930401 0 0 0
3467 1 5.312388068478847 7.5733285955882135 36.48399311335179 0 0 0
3468 1 3.8682277993893006 3.2622321037613458 26.230271991881306 0 0 0
3469 1 12.344216357841098 10.558081071050864 29.766611655431245 0 0 0
3470 1 3.981462450164335 8.025174240761222 27.257327257802658 0 0 0
3471 1 9.51187946938435 9.680044109531966 35.026582607506576 0 0 0
3472 1 11.318988676262785 5.576004335954784 30.198519297155315 0 0 0
3473 1 0.8689546165644577 3.4845642925891704 25.068561267123147 0 0 0
3474 1 0.9872703276169819 6.381479097545031 29.293566489401233 0 0 0
3475 1 10.314622826552192 9.78552360084451 27.70285496857432 0 0 0
3476 1 8.032447277784891 5.493399578322377 35.17415514815598 0 0 0
3477 1 8.708214018264 5.069230359638108 26.464746493745245 0 0 0
3478 1 2.893639583388954 2.9197308219467293 33.7922061863428 0 0 0
3479 1 4.951493015093791 6.747827462544152 32.536492467133044 0 0 0
3480 1 4.322169937875214 10.429805701796262 28.46316990851484 0 0 0
3481 1 5.5363448979049 4.581034421366423 29.909122813698975 0 0 0
3482 1 11.872408858586557 2.493783784169965 36.329735524182276 0 0 0
3483 1 7.703023702469613 8.739501002960694 28.404247476009864 0 0 0
3484 1 5.456463744858748 5.50451227897121 34.7721685810733 0 0 0
3485 1 2.294467713829604 6.988744035635656 31.773927971168938 0 0 0
3486 1 10.362613726938783 7.604387862662967 31.67380756233505 0 0 0
3487 1 7.427330301569209 4.123229025392309 31.74594594721371 0 0 0
3488 1 5.248414146414341 2.841403753821454 36.709245538958626 0 0 0
3489 1 1.7562274064586034 11.563969477674574 28.566389376588226 0 0 0
3490 1 1.8302385646664967 5.381114134113358 33.774172668390776 0 0 0
3491 1 7.011870412787126 8.604220338639728 25.88940446952905 0 0 0
3492 1 12.107320387149327 6.405643345234017 35.436102202619345 0 0 0
3493 1 5.420476174784029 2.581637014602428 32.895075287220244 0 0 0
3494 1 7.79022493717618 0.9794297125445784 34.25831458637928 0 0 0
3495 1 1.2054772268332994 1.846982302256473 32.0210098661586 0 0 0
3496 1 9.259606270322283 2.3537475871410085 31.157926219497604 0 0 0
3497 1 8.958868698729173 2.928235654152405 35.57704940314015 0 0 0
3498 1 1.649669113642723 8.454681273210479 25.87276665349782 0 0 0
3499 1 11.483467040251037 3.690294114642923 31.803134771673655 0 0 0
3500 1 11.929196525152514 0.5963978779587731 25.859217663134565 0 0 0
3501 1 7.6777544732166065 2.4840887866127295 25.295889406452055 0 0 0
3502 1 8.925719279298574 9.657245621363751 32.50269060327956 0 0 0
3503 1 2.3613335951693415 11.042613854290003 32.19708438273767 0 0 0
3504 1 7.650021345919001 11.192149661800517 29.30201117313708 0 0 0
3505 1 6.257450264810653 9.435763483829488 32.97722800662949 0 0 0
3506 1 7.8868353690881134 11.50935011237232 35.90381166088611 0 0 0
3507 1 5.452925177476819 0.9060302103675635 30.797378248084396 0 0 0
3508 1 1.399102029699692 11.151535056029605 25.970578989875555 0 0 0
3509 1 4.805086724364988 10.851699004791405 31.045971167156445 0 0 0
3510 1 10.840626409087308 6.104274687538523 25.24920465118045 0 0 0
3511 1 1.199287535831179 11.450133577000576 35.36585098117792 0 0 0
3512 1 5.5534760692747795 2.111116417805075 28.36419751977287 0 0 0
3513 1 8.697712443791309 7.578471399677073 36.61611376847111 0 0 0