LAMMPS data file via write_data, version 24 Dec 2020, timestep = 1000

5184 atoms
2 atom types

0 37.3341 xlo xhi
0 37.3341 ylo yhi
0 37.3341 zlo zhi
0 0 0 xy xz yz

Masses

1 15.9994
2 1.00794

Atoms # atomic

1 1 12.598926311418563 2.6576740980787203 2.733253373858144 0 0 0
2 1 5.350555090579111 5.532121757665604 2.466175148461653 0 0 0
3 1 12.008275013125616 7.500486930226073 2.4285715192980923 0 0 0
4 1 2.8929347405228834 4.348804849776482 4.396585338518367 0 0 0
5 1 4.041184142370019 11.954939900367275 11.747069141573988 0 0 0
6 1 7.227173402235057 0.3583459850953749 2.2300958430685576 0 0 0
7 1 5.66082982954895 10.029369431622221 10.346585738997103 0 0 0
8 1 5.771366261743588 10.676723386606735 1.402204852409419 0 0 0
9 1 9.47494572653892 11.821882042474725 0.9925874505262803 0 0 0
10 1 11.86251905512549 0.4723543836343888 8.935134887681786 0 0 0
11 1 5.463513322797449 7.600664848600612 11.291825899953105 0 0 0
12 1 3.8901475528219325 3.3170037063319056 1.5050768554896754 0 0 0
13 1 12.049695430005382 10.292699808047049 4.841883747658063 0 0 0
14 1 3.921490902110911 7.833204080133363 2.6694149102895754 0 0 0
15 1 9.43587683583132 9.742639625179947 10.087181697794321 0 0 0
16 1 11.290111321616346 5.4645281834198265 5.377786039791225 0 0 0
17 1 1.2931971865349214 3.350172604300336 0.1759118993407647 0 0 0
18 1 1.4608843978085786 6.534202318976398 4.738315999711437 0 0 0
19 1 10.032199080762725 9.947946899441579 2.9386426223237176 0 0 0
20 1 8.412582598327868 5.400781371153086 10.192119976068213 0 0 0
21 1 8.964952809903815 4.71441160139268 1.8980344499320208 0 0 0
22 1 2.9685653774648824 3.14346316075595 8.4493796527052 0 0 0
23 1 4.88247656429378 7.024324094204306 7.410043733809063 0 0 0
24 1 4.253567148578666 10.401546250338226 3.563027775645983 0 0 0
25 1 5.45624148887566 4.3565262236754805 4.74423590745508 0 0 0
26 1 12.240417160489539 2.240925354380384 11.176850507113079 0 0 0
27 1 7.684932220088491 9.062789394566847 3.5755649035037456 0 0 0
28 1 5.703618745433466 5.432174334469685 9.635457558503314 0 0 0
29 1 2.1816327893620673 7.180369998152353 7.357719672310738 0 0 0
30 1 10.21194228811318 7.534875367903613 6.836018582814697 0 0 0
31 1 7.511076595301261 3.900701385255217 6.589895269348665 0 0 0
32 1 5.36300110278804 2.537984736096186 11.9946714139258 0 0 0
33 1 1.9140552465152743 11.710080333842194 3.754803494906057 0 0 0
34 1 2.101898461222345 5.6081912725726415 9.4047199261422 0 0 0
35 1 7.012427434448138 8.403301247295866 0.8926045506501795 0 0 0
36 1 12.37542286051566 6.503703270355808 10.429375395814036 0 0 0
37 1 5.557293932067864 2.4692322358118473 7.988522086826452 0 0 0
38 1 7.922736031997595 0.943864922865827 9.172575561747644 0 0 0
39 1 0.9991448765323736 2.0562908300721636 7.065522451588131 0 0 0
40 1 9.472373587024075 2.2014174424459165 6.017986480736971 0 0 0
41 1 9.038159034300197 2.8595240302917837 10.859790948452005 0 0 0
42 1 1.8304045561462028 8.420882290117524 1.23453134993585 0 0 0
43 1 11.294379447626174 3.7276180421625047 7.2559214333148665 0 0 0
44 1 11.836172586208582 0.7371558176395412 0.9381956598084957 0 0 0
45 1 7.812902273959489 2.7187624806616055 0.6589821428356668 0 0 0
46 1 8.912256232824658 9.741494996612978 7.528581226703185 0 0 0
47 1 2.1216406486242154 10.98964963175784 7.522992817011011 0 0 0
48 1 7.73994247524891 11.568107150071311 4.739299052027536 0 0 0
49 1 6.186300113676369 9.322988658202648 7.732170734748133 0 0 0
50 1 7.77399374259501 11.402207312882075 11.194142085387908 0 0 0
51 1 5.542700716179373 0.7368772561630627 5.9726765481606385 0 0 0
52 1 1.7095586505187406 11.234093524611456 0.9787439673207828 0 0 0
53 1 4.623729386627184 10.919769840738013 6.119168849696164 0 0 0
54 1 10.682269009369566 6.338316912121717 0.49256529567768215 0 0 0
55 1 1.2551062774384467 11.332274552384579 10.162847273795482 0 0 0
56 1 5.669636411322556 1.9617919735982987 3.7400435678919326 0 0 0
57 1 8.71572589350343 7.749269808446844 11.492649686578995 0 0 0
58 1 10.559138790063919 5.666950636242351 8.709190315685518 0 0 0
59 1 2.9088127211944195 7.069595096246693 11.695747983906484 0 0 0
60 1 36.97171666602895 9.18092669140286 10.337307183281718 -1 0 0
61 1 9.502597599729466 12.478694342094077 7.556179027698876 0 0 0
62 1 1.573509808670292 1.6480875399981938 4.564009506000607 0 0 0
63 1 10.491873266061877 3.580490604967284 3.7461968717440395 0 0 0
64 1 0.30415629214055084 9.068957539454159 7.796776770162743 0 0 0
65 2 11.417436124604729 3.282277503908598 3.1215896588268612 0 0 0
66 2 5.436946030158736 5.236038593253202 3.7608068702270763 0 0 0
67 2 37.29400883455445 7.509551605478519 3.263280716085662 -1 0 0
68 2 4.1527379696238595 4.195955680581131 4.964231555585575 0 0 0
69 2 3.0701419509549996 11.87931874816848 11.487215073867656 0 0 0
70 2 6.719619933513786 11.901433675935513 1.9552537449147376 0 0 0
71 2 5.695732216752288 9.209206431239872 10.917060454055775 0 0 0
72 2 6.459672743172427 9.575225297824714 0.8658165853248636 0 0 0
73 2 8.958689087078307 11.758819812485564 0.08944119614741738 0 0 0
74 2 0.20124379623218558 1.191125546468865 8.250344103046716 0 0 0
75 2 5.515254261616017 6.8059985561250045 10.8133219776228 0 0 0
76 2 4.315081257515918 4.345810470362463 1.5353429640115595 0 0 0
77 2 11.179728852126102 10.165826843393365 4.512027071563098 0 0 0
78 2 2.580290677899243 7.8048942921686715 2.224085549097541 0 0 0
79 2 8.846712380796806 10.663524379623452 10.817984266258243 0 0 0
80 2 11.416873382562333 4.286226414621907 6.375312182575937 0 0 0
81 2 0.7259603808344907 3.108027373468735 12.131782924187906 0 0 0
82 2 0.5043269783081269 6.10794754045267 4.970525556128776 0 0 0
83 2 9.147797027124284 9.57966812959045 3.098348664911234 0 0 0
84 2 9.343636028795972 5.435173984728074 9.564320774559667 0 0 0
85 2 8.557516002082398 3.9587382799145616 1.4823856695891502 0 0 0
86 2 3.9447944333831853 3.028841668795687 8.351028720667365 0 0 0
87 2 5.200209908722707 6.061808651144655 8.344910587155278 0 0 0
88 2 5.023208000974332 10.446213054421914 2.8157656338643697 0 0 0
89 2 6.446359639584127 4.247640742630047 5.541062636291985 0 0 0
90 2 12.073804563900532 1.2921118275747263 12.271910954667915 0 0 0
91 2 7.218332516660132 8.403336007065557 2.465296931215072 0 0 0
92 2 5.312505064904709 4.558737994289357 9.792000048768982 0 0 0
93 2 3.1269667289892613 7.244251767420267 7.544321436610642 0 0 0
94 2 10.944948976063754 8.058723329440916 7.044920501341048 0 0 0
95 2 8.627822113553878 3.1638206067095 6.394185489214095 0 0 0
96 2 4.689812390764565 3.0155601259883746 13.004547142246876 0 0 0
97 2 1.2470881194319814 11.237481333622487 4.180448840213636 0 0 0
98 2 1.1325744067732462 5.758212388155228 9.815228167255276 0 0 0
99 2 7.909772880075483 8.18935521776785 0.05736416006757163 0 0 0
100 2 11.894796290581366 6.137733685808846 11.100047857837009 0 0 0
101 2 5.50227456826046 1.450877869671373 7.048426913050909 0 0 0
102 2 8.514890406523062 2.188512080300308 9.877422786806768 0 0 0
103 2 1.8105705293376635 2.3547356911480843 7.330560931208955 0 0 0
104 2 10.112803607731728 2.7712580916112546 6.617661506041364 0 0 0
105 2 8.71142124649896 3.698820586150114 10.524582781998786 0 0 0
106 2 0.549402281925474 8.356118793902613 1.7254230721055097 0 0 0
107 2 10.958624288918328 4.506844444555425 7.907763288696128 0 0 0
108 2 10.5806060511222 12.293782426710338 0.7619594357914145 0 0 0
109 2 6.568729526449272 2.6044544673455876 12.709957439227122 0 0 0
110 2 9.34791854790413 10.615526162513818 7.453874927770835 0 0 0
111 2 1.6500285218774164 11.824526574787996 7.43103866570977 0 0 0
112 2 7.0390731033986675 12.085058452211003 5.0318305620119315 0 0 0
113 2 5.923181993291323 8.37238993736567 7.763846065315323 0 0 0
114 2 8.107484851079192 12.038519309175559 10.597280520555154 0 0 0
115 2 5.010113620164604 37.293163353050495 5.675500919066664 0 -1 0
116 2 0.9832719835518854 11.26057944008291 0.3461869508136154 0 0 0
117 2 4.732619305399011 10.599577028079727 4.831398994227262 0 0 0
118 2 11.184265767394868 6.6874651504739075 1.3023754296991776 0 0 0
119 2 1.784126618948193 11.028358427739937 9.427482025196321 0 0 0
120 2 5.044486333630972 1.7564640233595112 3.098397316525973 0 0 0
121 2 9.017121612017426 8.604587040679892 10.460623531974367 0 0 0
122 2 11.109870537090126 6.124989101746561 9.314781746961664 0 0 0
123 2 2.8284287542243165 6.798239796182332 10.753477602105704 0 0 0
124 2 37.234347022962744 9.10874194789775 9.134610847345034 -1 0 0
125 2 8.77306533869776 13.12765366609301 8.410185423267226 0 0 0
126 2 1.789912824477896 0.7316826650879512 4.2017185072425915 0 0 0
127 2 10.677522402677342 4.398234124058691 4.238311309677271 0 0 0
128 2 1.13119050021661 8.189937473311108 7.441057821934878 0 0 0
129 2 13.110456582900671 3.1745870992551875 2.1386312532400433 0 0 0
130 2 6.225745667680528 5.905027849793307 2.499554479906847 0 0 0
131 2 11.437414038252868 8.303541714698932 2.546911363067496 0 0 0
132 2 2.3162227927530643 3.5795322752449907 4.4114066203441995 0 0 0
133 2 4.51577960538186 11.550641354894266 11.072833516302955 0 0 0
134 2 7.5211011724341565 12.34093334869336 3.4146771243953267 0 0 0
135 2 5.864681364416818 9.88519641426055 9.311496267982271 0 0 0
136 2 5.297454371438822 11.177807570942951 0.8259122921762848 0 0 0
137 2 8.622191409734846 12.335492189583228 1.9326430654283184 0 0 0
138 2 11.757881139399089 1.3154911249482877 9.411352001014732 0 0 0
139 2 4.113786081259124 7.309015834381483 11.491037414545772 0 0 0
140 2 3.0402079330281606 3.2245455411457926 1.3336345350056473 0 0 0
141 2 12.126649121647993 9.866483357062238 5.6611656980355844 0 0 0
142 2 4.515230953194771 7.072661495268658 2.8388092168994206 0 0 0
143 2 10.715078410656481 9.679569739803421 10.050585898221273 0 0 0
144 2 10.996226002024102 6.312229266358042 5.867058370934296 0 0 0
145 2 1.568270830336852 4.154064997378323 37.02283117008544 0 0 -1
146 2 1.968695324725216 5.460371752813128 4.454132105223874 0 0 0
147 2 9.977531246003215 10.525268031374157 2.0922826618332007 0 0 0
148 2 8.530975261095675 6.541489784013325 10.887241932166631 0 0 0
149 2 9.841193512993929 4.1773448077348485 2.8095218074758077 0 0 0
150 2 2.842658311193661 4.121571740886054 8.573902132206111 0 0 0
151 2 4.512213561546668 6.524938743559805 6.695126520448566 0 0 0
152 2 4.003234354330587 9.147850517876877 3.153337226972614 0 0 0
153 2 5.514015506513386 3.3761824604449764 4.49196764151592 0 0 0
154 2 11.419107170752687 2.625826518065275 10.868821777894473 0 0 0
155 2 7.902114784759876 8.491418359579336 4.317302804614988 0 0 0
156 2 6.993723075224085 5.342668236848516 9.897257711023155 0 0 0
157 2 1.80642959169015 6.723370612410921 6.052880615036423 0 0 0
158 2 9.421491067785382 8.490043831609041 7.0173645829508935 0 0 0
159 2 7.634039027239985 4.764599303423871 7.126549079584425 0 0 0
160 2 4.869065179557687 1.7978582163399792 11.6746068839415 0 0 0
161 2 3.000229390511283 11.056059951391541 3.771562414391998 0 0 0
162 2 2.0086546200438433 6.222583208299976 8.25253763708188 0 0 0
163 2 6.177475700487726 7.806605577459459 0.2082405776279957 0 0 0
164 2 12.544945100155294 7.5593622875597895 10.312613379206551 0 0 0
165 2 6.331888459312509 2.8881831784858285 7.550860826956446 0 0 0
166 2 7.0641818703418755 1.1803525883474832 8.648564051891958 0 0 0
167 2 1.0144758581308422 1.6711137795830957 5.732655512347966 0 0 0
168 2 9.781583690844322 1.0232609918442965 6.537978324409934 0 0 0
169 2 8.4806952150365 2.758827338458085 12.046610716811655 0 0 0
170 2 2.19624827326398 9.307839143807607 1.214965412555503 0 0 0
171 2 12.206469442450931 2.7376113058513085 7.295634418772436 0 0 0
172 2 11.939373377339988 1.4012593709079335 1.4838807361094852 0 0 0
173 2 8.001822663103203 1.8885630021033681 1.2477111471370885 0 0 0
174 2 9.14557599667848 9.817034908364262 8.838090707990311 0 0 0
175 2 3.2391377854170282 10.76775132668516 6.60229997867514 0 0 0
176 2 7.446373157417281 10.346752873790733 4.464178169768886 0 0 0
177 2 7.12959691047059 9.221802709799373 7.612399597626548 0 0 0
178 2 6.602668238564963 10.796281111726145 10.925240546033427 0 0 0
179 2 5.62499277753871 1.1296125572425444 4.934934088533217 0 0 0
180 2 1.6139305859937152 11.702514641136325 1.7069880659406764 0 0 0
181 2 5.316289643993567 10.55387067593369 6.636717205249445 0 0 0
182 2 9.882609166420648 5.524786694241342 1.177528596722552 0 0 0
183 2 0.426344095011698 12.311257749342696 9.652364978270906 0 0 0
184 2 6.612297335427484 1.2185836896679212 2.9908659025454374 0 0 0
185 2 9.48430945138186 6.890059181578553 37.307193389552296 0 0 -1
186 2 10.221659367692299 6.550183682457434 7.866121339685721 0 0 0
187 2 2.1526496885766866 8.077921699320168 12.459057844744118 0 0 0
188 2 0.30322174995672835 10.014159603232304 10.26892059571243 0 0 0
189 2 10.405215689415087 12.464353477864556 8.129868178078473 0 0 0
190 2 0.6792990602235826 2.0065425409592703 3.5411209509924304 0 0 0
191 2 9.996325206280723 2.804633052866111 4.892974887806171 0 0 0
192 2 0.8748597477599137 10.032067435925477 7.510570042928194 0 0 0
1729 1 12.438817393626897 2.670130089492021 14.739165242896707 0 0 0
1730 1 5.69582229261183 5.554016076977501 15.160123225603696 0 0 0
1731 1 11.915441814714058 7.63027344825852 14.840417021261578 0 0 0
1732 1 2.6720404043942585 4.545166786262359 16.781743539231865 0 0 0
1733 1 4.270632119538713 11.826736503266702 24.292241503442405 0 0 0
1734 1 7.585455738645766 0.20939616398643873 14.582890032453452 0 0 0
1735 1 5.649949225690711 10.027176603713444 23.071666233371673 0 0 0
1736 1 5.66036881600521 10.920665798956248 13.817283755333643 0 0 0
1737 1 9.558379281678839 11.76023903028783 13.349081646553044 0 0 0
1738 1 12.170999306654744 0.3738855859277358 21.19016975841668 0 0 0
1739 1 5.316938953113577 7.608977763883006 24.017851666724894 0 0 0
1740 1 4.501089981849983 3.4841327549162986 14.234416621169155 0 0 0
1741 1 11.88224830288547 11.193188872179924 17.280768276301654 0 0 0
1742 1 3.7025659190001092 7.7997354178949125 15.61152322514863 0 0 0
1743 1 9.492279473787113 9.64515355999009 22.585080488155103 0 0 0
1744 1 11.132620085907744 5.332260101697876 17.633037531331784 0 0 0
1745 1 1.3320973103192952 3.5371069388376974 12.743300617148163 0 0 0
1746 1 0.9339227097702799 6.630232360360421 16.97571723986124 0 0 0
1747 1 10.263567078254209 9.770677564547128 15.284215580423416 0 0 0
1748 1 8.07463500071699 5.399335303943787 22.760703241342565 0 0 0
1749 1 8.04150002452048 4.906330730747474 14.256605890676934 0 0 0
1750 1 2.72181235890625 2.638739045263223 21.16118471061044 0 0 0
1751 1 4.708566425794127 6.8172998003685565 19.487955235904654 0 0 0
1752 1 4.281023685508952 10.429039388303956 15.947946799711959 0 0 0
1753 1 5.6077988011786575 4.6259040484553315 17.61284209711785 0 0 0
1754 1 11.628326692799117 2.0733212454135974 23.72690835057894 0 0 0
1755 1 7.860340974961629 8.764898633424508 16.02057327684624 0 0 0
1756 1 5.727293213531175 5.385912324925145 21.5472101286303 0 0 0
1757 1 2.2196436829209896 6.802613139367755 19.234612614418783 0 0 0
1758 1 10.43017657518688 7.622294255122168 19.19800457842148 0 0 0
1759 1 7.560275777360372 4.001224292846349 19.204832513717214 0 0 0
1760 1 5.405039470412123 1.7485023390010574 24.208191170745014 0 0 0
1761 1 2.0096569688081307 11.723067337700726 15.957178634364615 0 0 0
1762 1 2.1094179076544965 5.238221425341093 21.480909592233267 0 0 0
1763 1 6.904087828725629 8.42437145346648 13.249901032121349 0 0 0
1764 1 12.156550471616056 6.3669409544236295 22.71295520177474 0 0 0
1765 1 5.817922446793973 2.268417797360404 20.592531462772527 0 0 0
1766 1 7.894775811388466 0.9014978893343499 21.74289655349342 0 0 0
1767 1 0.926142533857922 1.8948580652561433 19.499881420396644 0 0 0
1768 1 9.559877920238794 2.3229988038996305 18.514833487495043 0 0 0
1769 1 9.149114231955263 3.04656235208701 23.258600830573254 0 0 0
1770 1 1.6547035740232463 8.489902878109742 13.52738071554575 0 0 0
1771 1 11.539821639405494 3.7053499128132596 19.687178483717993 0 0 0
1772 1 11.909068115960782 0.5514314474643643 13.297867430276078 0 0 0
1773 1 7.7297688326883796 2.528628893334015 13.147127976408411 0 0 0
1774 1 8.9936275783886 9.647285987993104 19.848353546311984 0 0 0
1775 1 2.4193807025753933 11.297471140774284 20.037897956866047 0 0 0
1776 1 7.659928315191291 11.785157427998191 17.129556459613415 0 0 0
1777 1 6.269649212409581 9.671381297222577 20.301155844138155 0 0 0
1778 1 7.944586220968122 11.554619605725966 23.68268996107655 0 0 0
1779 1 5.7349957661091 0.8184594514915627 18.392814386651242 0 0 0
1780 1 1.2260585893549523 11.096682735088663 13.54846098453709 0 0 0
1781 1 4.436918051802448 10.611599166845604 18.46948446126939 0 0 0
1782 1 10.887086565402882 6.292172901739225 12.861167270488059 0 0 0
1783 1 1.496398593671607 11.369457244864806 22.62577744521911 0 0 0
1784 1 5.733528143912495 1.9918987816557374 15.96120420109573 0 0 0
1785 1 8.949246408422269 7.495047766837682 24.181214971568465 0 0 0
1786 1 10.06567092281053 5.612548887653043 21.12007268882076 0 0 0
1787 1 2.7214409694393455 7.062527748177067 23.876174038796094 0 0 0
1788 1 37.026159139948376 9.076600143047738 22.26110809403183 -1 0 0
1789 1 9.753500061141215 12.457015648169817 19.94578473364138 0 0 0
1790 1 1.711588958942589 1.6963294383643635 16.935431603853484 0 0 0
1791 1 10.236393222316789 3.656615301454249 15.98679707939358 0 0 0
1792 1 0.6083778182768382 8.82584147293869 19.660767438859615 0 0 0
1793 2 11.48246299211136 3.243142979475258 15.401069150993727 0 0 0
1794 2 5.632882065535031 5.172383877487285 16.10210494142843 0 0 0
1795 2 37.19029867225726 7.513340763998761 15.542883431493102 -1 0 0
1796 2 3.60338750131264 4.776174288466007 16.895916267468024 0 0 0
1797 2 3.3060185067100676 11.66771254763982 24.263980925617894 0 0 0
1798 2 6.613787191553657 11.927547237549584 14.334925817578522 0 0 0
1799 2 5.508128793702083 8.785015621852398 23.22030910443036 0 0 0
1800 2 6.309301209870179 9.627594426805159 13.751587867305778 0 0 0
1801 2 8.862928315987636 11.740891611303459 12.629526379095807 0 0 0
1802 2 37.08068985099304 0.8394628762362379 20.885435055585123 -1 0 0
1803 2 5.781291333223024 6.974279056322559 23.48126799450276 0 0 0
1804 2 5.05773174581338 4.646515508596064 14.499998758112529 0 0 0
1805 2 11.27145058669472 10.673957577968334 16.6832794537529 0 0 0
1806 2 2.919952231442048 8.192013264340115 14.540799432052822 0 0 0
1807 2 8.698957680842911 10.61846208516381 23.03415239997118 0 0 0
1808 2 11.577809553133534 4.411967396742372 18.55909811763717 0 0 0
1809 2 0.5525794098661794 2.7846037585858197 24.421541536898687 0 0 0
1810 2 37.24227073667411 6.103324776027121 17.48699592525808 -1 0 0
1811 2 9.18572021724661 9.33442768145715 15.779665677398926 0 0 0
1812 2 9.145354865475973 5.9893215344782424 22.017403573719164 0 0 0
1813 2 7.826097115756681 3.976766060565523 14.00230044068378 0 0 0
1814 2 3.6396189761409845 2.769727429695258 21.064074366174072 0 0 0
1815 2 5.2898305538880095 6.0807883640040306 20.41318930847538 0 0 0
1816 2 4.956569807000016 10.854519404413018 14.902514153166393 0 0 0
1817 2 6.658619381818635 4.614386755376866 18.354537979819543 0 0 0
1818 2 11.315832569353793 1.2684044422354834 24.668928682304887 0 0 0
1819 2 7.510933919858849 8.526226643958402 15.132351449699016 0 0 0
1820 2 5.2782164947808425 4.496151482148827 21.76106177819971 0 0 0
1821 2 3.4949335443316585 6.955857441589738 19.183426368832624 0 0 0
1822 2 11.254190414488788 8.030938420230795 19.470670037701794 0 0 0
1823 2 8.46106474935927 3.212046170367443 18.497753449617182 0 0 0
1824 2 4.7676248586640915 2.290127252164153 24.82408982392566 0 0 0
1825 2 1.3177444493865327 11.336142562061736 16.564598787758257 0 0 0
1826 2 1.3923383736538069 5.527004064848412 22.102049078244136 0 0 0
1827 2 7.698072933870625 8.215889476494484 12.63544116305667 0 0 0
1828 2 11.766808437512076 5.938314527835962 23.580738095726833 0 0 0
1829 2 5.67643863838867 1.5839704041776272 19.447843909009876 0 0 0
1830 2 8.237274683965108 1.7970292335417384 21.850714341696015 0 0 0
1831 2 1.721849515012085 2.2503292191161295 19.98476990550557 0 0 0
1832 2 10.606513631365742 2.7923971088732062 19.047106206593757 0 0 0
1833 2 8.720262110410598 3.8412511258867355 22.84245944058144 0 0 0
1834 2 0.5966495423560221 7.903330892535803 14.036908366943289 0 0 0
1835 2 11.02202602437281 4.218035590888093 20.361069449365715 0 0 0
1836 2 10.972864988027359 12.518588288376488 13.22309668386748 0 0 0
1837 2 6.719571422838403 1.9772725051063667 24.685235716683497 0 0 0
1838 2 9.355419225612582 10.489423270773072 19.441372970600757 0 0 0
1839 2 2.046747485019165 12.02176270304309 19.520533360812358 0 0 0
1840 2 6.924446170742052 12.178837975093636 18.112686236126837 0 0 0
1841 2 5.946848677095382 8.755381385208608 20.06347707002734 0 0 0
1842 2 7.649165954462617 12.482194909586582 22.853143378418665 0 0 0
1843 2 5.090398129503667 36.97473754717339 18.60634301147709 0 -1 0
1844 2 0.46482911073908184 11.628295788391714 13.177787879513813 0 0 0
1845 2 4.541641400449194 10.71183432418097 17.23141646991598 0 0 0
1846 2 11.345432253745447 6.904603423876273 13.942969200989001 0 0 0
1847 2 2.096667774183519 11.22720489090789 21.79283367547034 0 0 0
1848 2 5.003944508338169 2.3011343533923574 15.299472963123545 0 0 0
1849 2 9.04024477851077 8.148768651092364 23.423267014888133 0 0 0
1850 2 11.125223303804415 5.830838920824482 21.69929703892857 0 0 0
1851 2 2.4324678210816786 7.063531921547506 22.952632578245534 0 0 0
1852 2 37.32574947030491 8.941626267372909 21.350711758341912 -1 0 0
1853 2 9.034573983640177 12.811965046715923 20.546873889712415 0 0 0
1854 2 2.0737662080681423 0.4725468638956331 16.61548331842474 0 0 0
1855 2 10.448973054211518 4.5173685914983475 16.850075610881774 0 0 0
1856 2 1.4333941027151154 7.870593797006232 19.3949605794526 0 0 0
1857 2 12.841661177051295 3.2665469665562195 14.106399829816626 0 0 0
1858 2 6.877840710672805 5.1152429729891695 14.621585127861437 0 0 0
1859 2 11.42752363305685 8.468175372089604 14.913701666588091 0 0 0
1860 2 2.4213857059815536 3.5095003929450397 17.076129722045316 0 0 0
1861 2 4.654375352721622 11.150774365435163 23.473635761555748 0 0 0
1862 2 7.293427840452436 12.205897104894541 15.65467999039978 0 0 0
1863 2 5.775558076198896 9.978554381275941 22.153272955958705 0 0 0
1864 2 5.164139353237946 11.305580203887805 13.054379417632845 0 0 0
1865 2 9.012217269235265 11.639213843114256 14.269966357813537 0 0 0
1866 2 11.865220808882391 1.172049716324525 21.732881706223864 0 0 0
1867 2 4.045137906162437 7.3020711596079595 23.70285751985971 0 0 0
1868 2 3.622181981832679 3.5131781426625954 14.42649500699521 0 0 0
1869 2 11.936767110261025 10.525573932193705 17.97613749036351 0 0 0
1870 2 4.396784937562003 7.200544909767289 15.22952092659277 0 0 0
1871 2 10.544457099314712 9.589260442747596 22.77468864615912 0 0 0
1872 2 10.759734887025974 6.09927470327795 17.98675677394427 0 0 0
1873 2 1.6170098449132535 4.422037123357686 12.403718798054093 0 0 0
1874 2 1.3519180684678869 5.984220322361821 16.500422782281998 0 0 0
1875 2 9.95010415426764 10.387354423209365 14.57029430169633 0 0 0
1876 2 8.218065661274812 6.15709461644491 23.419703062615092 0 0 0
1877 2 8.708411579279604 4.7497452442962595 15.138313773143253 0 0 0
1878 2 2.2732111967131163 3.800306238012096 21.043142503055787 0 0 0
1879 2 4.856451535906914 6.407648315992027 18.721655893807043 0 0 0
1880 2 4.160091154343132 8.96351030184166 15.83670160863733 0 0 0
1881 2 5.41565021107797 3.712477951095181 17.469245409390673 0 0 0
1882 2 10.544643925187748 2.7338140793572583 23.45835903229483 0 0 0
1883 2 7.337775670635561 8.257621202127186 16.789457465894113 0 0 0
1884 2 6.997016503532857 5.442410072411936 22.05492586630376 0 0 0
1885 2 1.8793665588843118 6.668353918077656 17.962519993816084 0 0 0
1886 2 9.486622946121694 8.570877512944438 19.245257591383215 0 0 0
1887 2 8.039088016793897 4.755760885731146 19.454159824167682 0 0 0
1888 2 4.731928863502491 0.566072990723036 24.00551679605865 0 0 0
1889 2 3.1406706118336944 10.943725565423591 15.897030290563364 0 0 0
1890 2 1.9008611939945763 6.16223915463295 20.58766823234258 0 0 0
1891 2 6.186482819045317 7.768078170033001 12.376743777873585 0 0 0
1892 2 12.102455407258303 7.485217857864834 22.736560692900987 0 0 0
1893 2 6.281484425944259 3.0672426018780126 20.114246731891654 0 0 0
1894 2 6.846630930843836 1.49859087277687 21.29152130770106 0 0 0
1895 2 1.1808177230531052 1.732976209406996 18.485199254861815 0 0 0
1896 2 9.696124496393875 1.3456766757284442 18.95717827845761 0 0 0
1897 2 8.587981869556408 2.690591315872977 24.310858056371085 0 0 0
1898 2 1.4864790222662323 9.708672362517904 13.60188127810034 0 0 0
1899 2 12.595542180581846 2.9379236057550853 19.50104216214334 0 0 0
1900 2 12.103098729506868 1.5653827532662603 14.126799782443994 0 0 0
1901 2 7.726060153523719 1.7109746727748332 13.544798370228758 0 0 0
1902 2 9.646895654224176 9.716031720723354 21.241815806690976 0 0 0
1903 2 3.4075854888551036 10.93390643298158 19.516171899518472 0 0 0
1904 2 7.56407049619667 10.885945972650697 17.35361342540196 0 0 0
1905 2 7.211024786368719 9.552001610062442 20.14027736438535 0 0 0
1906 2 6.818471402375209 10.949490182311406 23.648570934614966 0 0 0
1907 2 5.482878568885414 1.478976978053601 17.518701802865145 0 0 0
1908 2 1.5400232908162805 11.651000787989672 14.766006276709865 0 0 0
1909 2 5.1579281335442095 10.432504917546224 19.084622306816527 0 0 0
1910 2 10.258009946577122 5.749870340019137 13.381360217768735 0 0 0
1911 2 0.7450096813590108 12.137133640386814 22.305340700337602 0 0 0
1912 2 6.4073637206265674 1.4328314438839833 15.494009463086769 0 0 0
1913 2 9.610742308196397 7.437739213589213 12.048608126661529 0 0 0
1914 2 10.047927623493615 6.290968785153537 20.346505746906786 0 0 0
1915 2 2.1301031727205144 7.975442434836138 24.721696148497777 0 0 0
1916 2 0.8204512276735222 10.276341582735432 22.74266538094034 0 0 0
1917 2 10.691777049956412 12.786457349954677 20.795878366459593 0 0 0
1918 2 0.9873724326697618 1.7632831108846165 16.209806627453574 0 0 0
1919 2 10.086056827489784 2.832272401290465 16.421668103042524 0 0 0
1920 2 1.179111371366337 9.586337596882238 19.768946501095854 0 0 0
3457 1 12.56296757731387 2.5321776336195825 27.286262033431054 0 0 0
3458 1 5.692333060443268 5.771691099478962 27.499047503255102 0 0 0
3459 1 12.00410103259753 7.670333837660315 27.36048513173803 0 0 0
3460 1 2.6109854456651758 4.2812925193340785 29.57258826670455 0 0 0
3461 1 3.9282326006010932 11.985844460257427 37.01630091255694 0 0 0
3462 1 7.156585736355682 37.1071260978387 27.14250437478199 0 -1 0
3463 1 5.815615902314704 10.090753279186048 35.461180348977784 0 0 0
3464 1 5.796073114039654 10.860508308683961 26.301314019407947 0 0 0
3465 1 9.235097230391117 12.024136611197358 26.211119115187433 0 0 0
3466 1 11.909631957817679 0.79509741590135 33.81384287757549 0 0 0
3467 1 5.30006250496088 7.631783713663176 36.47885219406213 0 0 0
3468 1 3.840173100060193 3.2932978578788816 26.215358165518634 0 0 0
3469 1 12.336079192996749 10.574244007195915 29.777734672728954 0 0 0
3470 1 3.9288139275880294 8.059547756083319 27.279926542095083 0 0 0
3471 1 9.5781659554437 9.65250898053028 35.068832693197265 0 0 0
3472 1 11.320912777135709 5.603964631071809 30.186892267666675 0 0 0
3473 1 0.9487667884241686 3.519305808267522 25.031007608095557 0 0 0
3474 1 1.0645515499667715 6.368107133027634 29.2723491066357 0 0 0
3475 1 10.36655443703202 9.77692701846228 27.72327731140958 0 0 0
3476 1 8.082722655812846 5.452915375096441 35.14777192984906 0 0 0
3477 1 8.720412609906864 5.088689598222877 26.426882264586666 0 0 0
3478 1 2.8691275885241883 2.965147276743458 33.79295498915786 0 0 0
3479 1 4.964315164761801 6.706711983138594 32.54289912832826 0 0 0
3480 1 4.307804201455573 10.483604129613346 28.459211054200185 0 0 0
3481 1 5.550612865725449 4.599551310123344 29.953720652446734 0 0 0
3482 1 11.901440120535407 2.5041820738208713 36.283248861440576 0 0 0
3483 1 7.676564277256628 8.73780708542802 28.378351039614074 0 0 0
3484 1 5.488376080590264 5.504961631517417 34.76384055704624 0 0 0
3485 1 2.230008874995506 6.964435887600606 31.778938701398946 0 0 0
3486 1 10.313119318285857 7.613532780000808 31.714277959790394 0 0 0
3487 1 7.448076547733144 4.124334021221748 31.723281091185736 0 0 0
3488 1 5.2346675935224445 2.8183769190217505 36.74268411480815 0 0 0
3489 1 1.779543434542786 11.631882099801881 28.583773826211754 0 0 0
3490 1 1.8879474307864668 5.363382991963639 33.782376889625496 0 0 0
3491 1 7.0033083515777745 8.556739388328173 25.86811763829749 0 0 0
3492 1 12.147105037506828 6.377035011978222 35.39128803635514 0 0 0
3493 1 5.406764147635413 2.623799302348559 32.92510879198615 0 0 0
3494 1 7.819983040973984 0.9478294207808051 34.24526667199273 0 0 0
3495 1 1.1639511856146123 1.9155844334813894 32.06694234461169 0 0 0
3496 1 9.25509690469276 2.389541609652194 31.13660441039749 0 0 0
3497 1 8.96359647023893 2.884757697950381 35.56684860033235 0 0 0
3498 1 1.5766606331372361 8.485985708931402 25.845618054628037 0 0 0
3499 1 11.523140101503154 3.7336744001913593 31.83596516366604 0 0 0
3500 1 11.952176843507036 0.5665634979232378 25.88560442282622 0 0 0
3501 1 7.732585238590241 2.4698415652443186 25.34061711863263 0 0 0
3502 1 8.975623233076188 9.667243247732614 32.4954028540916 0 0 0
3503 1 2.3331770889093923 11.036608740640329 32.18159119240665 0 0 0
3504 1 7.7173630242427045 11.226727845793251 29.289953615642226 0 0 0
3505 1 6.256963987079405 9.423797834142178 32.97822027900222 0 0 0
3506 1 7.873560398564345 11.520320827436239 35.88769661550417 0 0 0
3507 1 5.450960825522419 0.896465093525374 30.79287228617054 0 0 0
3508 1 1.375992248858224 11.157014063668143 25.941567019530424 0 0 0
3509 1 4.807478275602171 10.831022786336666 31.039956314885227 0 0 0
3510 1 10.812966996889212 6.104183785741278 25.262398113026297 0 0 0
3511 1 1.2517805399053543 11.471786928056764 35.348219384345924 0 0 0
3512 1 5.545871712461902 2.1320105261045725 28.331786606905645 0 0 0
3513 1 8.697850187958112 7.600627404944995 36.60281479819887 0 0 0