LAMMPS data file via write_data, version 24 Dec 2020, timestep = 1000

5184 atoms
2 atom types

0 37.3341 xlo xhi
0 37.3341 ylo yhi
0 37.3341 zlo zhi
0 0 0 xy xz yz

Masses

1 15.9994
2 1.00794

Atoms # atomic

1 1 12.637655626336347 2.683036235007234 2.727110575056033 0 0 0
2 1 5.330081104749303 5.504898704412626 2.5035850879589385 0 0 0
3 1 11.996867290274693 7.436471544877526 2.4340153095474744 0 0 0
4 1 2.900759787403997 4.327041794232157 4.367523509179133 0 0 0
5 1 4.0342287721636065 11.9347217027755 11.743089621634194 0 0 0
6 1 7.201097154655026 0.34854875494510335 2.273079231370972 0 0 0
7 1 5.614729303489896 10.145763814877956 10.426771483785483 0 0 0
8 1 5.7101525714503145 10.669849678848808 1.375665799416262 0 0 0
9 1 9.442326083277244 11.874339613333474 0.9428867768075891 0 0 0
10 1 11.87827545829213 0.45941193896389443 9.028272214100726 0 0 0
11 1 5.416622910595684 7.573853356380068 11.308803054284548 0 0 0
12 1 3.8812840005443223 3.2916303915331575 1.5106960821907947 0 0 0
13 1 12.029451268790181 10.350597721924569 4.812878358995196 0 0 0
14 1 3.890350838287163 7.733433852795876 2.6827952464619 0 0 0
15 1 9.46723924698166 9.666492968373479 10.07077366795232 0 0 0
16 1 11.339059407904456 5.468400999406899 5.332109298345784 0 0 0
17 1 1.2707765187388986 3.318953170913549 0.22715792506055246 0 0 0
18 1 1.4640624237930575 6.5483740500219945 4.777377349389939 0 0 0
19 1 10.056039572991002 9.931304001282765 2.982128314927131 0 0 0
20 1 8.389610321082541 5.502931067308203 10.230757109733432 0 0 0
21 1 9.02710003904089 4.714845525935014 1.897929232500721 0 0 0
22 1 2.9048064771983846 3.1179149544210163 8.558279997340323 0 0 0
23 1 4.9386897765408495 6.945164325454415 7.406566739543237 0 0 0
24 1 4.2637631639416504 10.347135415895753 3.5851534598108303 0 0 0
25 1 5.47915293849723 4.365001767615221 4.766427019443668 0 0 0
26 1 12.145456822788459 2.246338133077366 11.085909014195495 0 0 0
27 1 7.65880457908732 9.032216200740647 3.533976369785007 0 0 0
28 1 5.771433630607047 5.416868200543644 9.60678203004678 0 0 0
29 1 2.182764052300265 7.230660114490217 7.348703890231983 0 0 0
30 1 10.193394514540252 7.53200036665937 6.841986850765845 0 0 0
31 1 7.4479828934960635 3.9119134208910564 6.58700343262229 0 0 0
32 1 5.242814679201816 2.478508332208293 12.004158056139598 0 0 0
33 1 1.9262743261296036 11.713197615602608 3.748445726554335 0 0 0
34 1 2.059424911050968 5.604326766841657 9.454531793665108 0 0 0
35 1 6.926646611850711 8.495275631710241 0.9218494971488448 0 0 0
36 1 12.329628399801086 6.585064574715012 10.492156880445092 0 0 0
37 1 5.593713086067112 2.4194476966136538 8.048462321655085 0 0 0
38 1 7.9550176711141445 1.0097951096978464 9.204363275320052 0 0 0
39 1 0.9457330352843274 2.026684180084537 7.119380821827825 0 0 0
40 1 9.539339222806179 2.181502590894783 5.968615505317592 0 0 0
41 1 9.073627417251446 2.97836166265151 10.905759731694339 0 0 0
42 1 1.8555821426430237 8.3927527486099 1.2625551581652126 0 0 0
43 1 11.334324187842931 3.7230939039486217 7.239404181058791 0 0 0
44 1 11.808145384907261 0.7178615349172599 0.9354361731521008 0 0 0
45 1 7.79657030947504 2.6856316461851777 0.6110860790406318 0 0 0
46 1 8.897558020757872 9.749105770578781 7.5126419495299865 0 0 0
47 1 2.089505946580044 10.969956189799143 7.500970142606747 0 0 0
48 1 7.643025042008181 11.525180645352515 4.767990399402578 0 0 0
49 1 6.23230964241343 9.252093559536279 7.760774371933195 0 0 0
50 1 7.849451572134676 11.354683082677441 11.264918899485778 0 0 0
51 1 5.615038014677666 0.7476402027088155 6.030629105006824 0 0 0
52 1 1.6522907521814054 11.151931626651045 0.9466890522153936 0 0 0
53 1 4.668003972956668 10.880284498868654 6.125035189313929 0 0 0
54 1 10.712755334654798 6.319884053310674 0.4675540652449692 0 0 0
55 1 1.211916840111002 11.284287222068102 10.125977210246564 0 0 0
56 1 5.711176633621911 1.9294543014512993 3.7278149746704825 0 0 0
57 1 8.692824424080749 7.741543430118659 11.533596414504832 0 0 0
58 1 10.559837569833014 5.690872296802337 8.673572761454931 0 0 0
59 1 2.8983708827442958 7.010955201259854 11.70051135106266 0 0 0
60 1 36.946027388195944 9.168649097914258 10.289744336523151 -1 0 0
61 1 9.554209681015323 12.362819555160854 7.518892151550736 0 0 0
62 1 1.564551540098762 1.5574485798671607 4.602303188133577 0 0 0
63 1 10.443629939822339 3.628887783419812 3.7230613359530342 0 0 0
64 1 0.2843593256068957 9.093085000086406 7.7515929448584755 0 0 0
65 2 11.519575099152574 3.1027639826353646 3.3395328277740117 0 0 0
66 2 5.501448140654941 5.175021254972872 3.737740021293035 0 0 0
67 2 0.029840428124070673 7.262270420420529 3.2422697082439758 0 0 0
68 2 4.263918085051984 4.041389175165657 4.733937543869511 0 0 0
69 2 3.006996168782527 11.869555640108594 11.526019606272532 0 0 0
70 2 6.6668867605740925 11.857941308760614 1.9988837036826497 0 0 0
71 2 5.691219480993278 9.380549945260173 11.045776322290518 0 0 0
72 2 6.531616053828553 9.685869960010644 0.996815846186444 0 0 0
73 2 8.911154238131937 11.71765565758522 37.329944159146415 0 0 -1
74 2 37.308904386808166 1.0812371453273926 8.096615156896709 -1 0 0
75 2 5.561557309967959 6.626335396494469 10.844507425749162 0 0 0
76 2 4.301413699372788 4.431654216567717 1.760617382009618 0 0 0
77 2 11.149346778349438 10.232688219587011 4.4471936458279995 0 0 0
78 2 2.6712869703724524 7.76324933345886 2.2029443561042616 0 0 0
79 2 8.86638669866085 10.614771091116035 10.814500446907072 0 0 0
80 2 11.610246182008133 4.52220493480801 6.2822736387862355 0 0 0
81 2 0.9749723884105329 2.704273079629661 12.286555753898515 0 0 0
82 2 0.5485549618645787 6.26244165792268 4.910122774658395 0 0 0
83 2 9.162849445039729 9.492112211773291 3.315486275929577 0 0 0
84 2 9.198059447284498 5.298512617588088 9.593492977682098 0 0 0
85 2 8.581705473868901 4.0306870794137835 1.4942520585873962 0 0 0
86 2 3.9653218235067427 2.935380533578284 8.40991012446801 0 0 0
87 2 5.303706376366009 6.167363799884185 8.440142244608184 0 0 0
88 2 5.136384675665626 10.675335180410276 2.6069648080907513 0 0 0
89 2 6.611410339313452 4.236528405694955 5.502953574307962 0 0 0
90 2 12.16895056734768 1.2717593948158943 12.147406820897569 0 0 0
91 2 7.373659574141673 8.702605093239017 2.480546805138507 0 0 0
92 2 5.498117087802412 4.539167330609371 9.866297165369764 0 0 0
93 2 3.4726734317156245 7.383702137886284 7.579135134844546 0 0 0
94 2 10.841544924448067 8.201183110671714 7.057309110429636 0 0 0
95 2 8.346541226036324 3.0637956678044826 6.358898271378884 0 0 0
96 2 4.497134182296684 3.275552328745654 12.89185204771625 0 0 0
97 2 1.1595779343663704 11.520339303629788 4.275813064286302 0 0 0
98 2 1.2847802162906228 5.959269676324699 9.705151714714978 0 0 0
99 2 8.051658873148273 8.277678959655233 0.0645417437717806 0 0 0
100 2 12.01504298873088 6.320276633582132 11.347194653049574 0 0 0
101 2 5.578948677474386 1.7583883531659639 7.319867141063529 0 0 0
102 2 8.357999295700415 1.8686393961141667 9.86191031316241 0 0 0
103 2 1.5917924779599841 2.3631271168540007 7.771989633419907 0 0 0
104 2 10.228132388227952 2.797410194863087 6.5457223280323396 0 0 0
105 2 8.968661897309905 3.9068129603307113 10.644198767610456 0 0 0
106 2 0.5786400200116067 8.38499493460429 1.805760364283313 0 0 0
107 2 11.293225106009123 4.420346055989518 7.815514626365066 0 0 0
108 2 10.630501568783199 12.433186794054064 0.9485141088011381 0 0 0
109 2 6.2970178977365405 2.461223648453675 12.835125618781104 0 0 0
110 2 9.405424190863087 10.576111848671173 7.512406544690113 0 0 0
111 2 1.5227903642033713 11.790891086810309 7.3533073000857225 0 0 0
112 2 7.064908040994679 12.01821965558967 5.391263531519538 0 0 0
113 2 5.80594265219239 8.307563512086231 7.742384010771194 0 0 0
114 2 7.859460438400995 12.002452612477652 10.611546444184901 0 0 0
115 2 5.184142865012588 37.27652997736961 5.867336898815097 0 -1 0
116 2 0.9091739872119514 11.327274529048648 0.30711007413925606 0 0 0
117 2 4.6229256660901505 10.398305642958775 4.818694284958438 0 0 0
118 2 11.206868388808468 6.595264631618042 1.288964280578415 0 0 0
119 2 2.0173330479495033 11.105559713149114 9.453554413922094 0 0 0
120 2 4.711544500026611 1.899483598752442 2.7769810548321963 0 0 0
121 2 9.094723608812298 8.595029625722251 10.400817043548368 0 0 0
122 2 11.160375033742755 6.124415902980714 9.435708433775064 0 0 0
123 2 2.9747358697137525 6.718819566953665 10.857785762364056 0 0 0
124 2 0.01214720258522162 9.075420024158925 9.030008238988955 0 0 0
125 2 8.846471962204001 13.137465144522913 8.467042678576279 0 0 0
126 2 1.8727117959853534 0.7242260209033944 4.1514886293289335 0 0 0
127 2 10.793729666257034 4.207191145737706 4.408220437490668 0 0 0
128 2 1.2758513913376812 8.240619161132754 7.637334271243692 0 0 0
129 2 12.846946205653467 2.982820119859746 1.8584776116864528 0 0 0
130 2 6.262323847973638 5.9481765837934395 2.247251261141481 0 0 0
131 2 11.493999883945254 8.30918414983059 2.780214612487096 0 0 0
132 2 2.3483518478987127 3.617058365369905 4.80502324162837 0 0 0
133 2 4.456341496953289 11.206591391271981 11.059086375384801 0 0 0
134 2 7.520374387911562 12.040364456598367 3.5374726888763166 0 0 0
135 2 5.828877342257398 9.838650947758799 9.20783526362004 0 0 0
136 2 5.416989337366991 11.35433251241414 0.7595394211616697 0 0 0
137 2 8.487398138079314 12.648198094881762 1.6361475410651733 0 0 0
138 2 11.928296099870376 1.1846443665239361 9.750005146508874 0 0 0
139 2 4.16111403960683 7.570266020759074 11.382070152369314 0 0 0
140 2 3.0101027419811266 3.5472626100551783 1.3154387982982487 0 0 0
141 2 12.191786626965634 10.015834416525637 5.773197509488545 0 0 0
142 2 4.466650246506963 6.9767225724231645 2.7816073034750914 0 0 0
143 2 10.741305394717443 9.62353371091887 10.079319226150455 0 0 0
144 2 10.99696258767258 6.380266501007178 5.788669753367267 0 0 0
145 2 1.619270407216648 4.160658481947288 37.171898865317544 0 0 -1
146 2 2.1869684919632126 5.519880261984343 4.293981331975621 0 0 0
147 2 9.834725466985763 10.413683325315713 2.2189917722155834 0 0 0
148 2 8.368757717315896 6.730577338804024 10.786676812867684 0 0 0
149 2 9.53357740159889 4.255202299337323 2.6060220539260026 0 0 0
150 2 2.803688814308696 4.080500838795573 8.780384578706599 0 0 0
151 2 4.727290985094562 6.164210730190533 6.79279277705454 0 0 0
152 2 4.064414606030562 9.153366876654724 3.295581011057084 0 0 0
153 2 5.620194319842057 3.1763788528497434 4.29628645372623 0 0 0
154 2 11.267641674070571 2.743720009482977 10.96316910957754 0 0 0
155 2 7.6893819879925065 8.265371170192596 4.112396955886151 0 0 0
156 2 6.9913577373253 5.29547098977576 9.815990839159177 0 0 0
157 2 1.7209470758748326 6.977682187902997 6.066396470348169 0 0 0
158 2 9.406163542869884 8.522375046048886 7.121874756592514 0 0 0
159 2 7.837283785258313 4.662043616578485 7.018958373553442 0 0 0
160 2 5.027250599181254 1.595646475354492 11.760125295164103 0 0 0
161 2 3.186217553679791 11.2678033815412 3.5793773419605928 0 0 0
162 2 2.016031890293576 6.222507711338879 8.33555272678518 0 0 0
163 2 6.058284371493803 7.632602493593159 0.3219963650197802 0 0 0
164 2 12.306683688533207 7.5369037512174675 10.288303730855615 0 0 0
165 2 6.245674925954592 3.05045058030926 7.743651432245743 0 0 0
166 2 7.081628325776351 1.3432012777872342 8.763630411608586 0 0 0
167 2 1.1925540091853188 1.635455579358805 5.8264927986430175 0 0 0
168 2 9.566640248137485 0.9021131223152037 6.336548757933546 0 0 0
169 2 8.547266075538493 2.4516395308430656 12.16600079076177 0 0 0
170 2 1.8846354448669898 9.417316961266659 1.2550108313119928 0 0 0
171 2 12.278451417253184 2.9488083791593795 7.554120680675999 0 0 0
172 2 12.1570842119715 1.5654944580884287 1.8804144291943332 0 0 0
173 2 7.985739436950236 2.032713330605106 1.2792434586884966 0 0 0
174 2 9.267177062230367 9.752511130311271 8.840284898348354 0 0 0
175 2 3.2892996017271527 11.04496403465872 6.628131182310981 0 0 0
176 2 7.573531455561029 10.461514286723586 4.454726817808391 0 0 0
177 2 7.0489699493974065 9.311154238278835 7.616962765498779 0 0 0
178 2 6.666580817606183 10.585064217511086 11.11148435779254 0 0 0
179 2 5.573067960454678 1.5564504646862676 5.207236504747957 0 0 0
180 2 1.6249648979781044 11.605032984197187 1.7315956797983698 0 0 0
181 2 5.337757201840142 10.470023634623733 6.524932554692651 0 0 0
182 2 9.867232837800822 5.648192425960145 1.1935124859721615 0 0 0
183 2 0.44800739768203357 12.246518619339982 9.680010199545453 0 0 0
184 2 6.631383093743694 1.3193890067849339 3.033608478051376 0 0 0
185 2 9.826108760492867 7.107247064870722 0.017126311156685156 0 0 0
186 2 10.168369975104323 6.432890168765264 7.6683632791993395 0 0 0
187 2 1.9394301547427564 7.8435391684041225 12.41173450644578 0 0 0
188 2 0.4176879872596401 10.192641016490576 10.351687377774983 0 0 0
189 2 10.425886690285623 12.466611461232125 7.971836010816001 0 0 0
190 2 0.9415269078618888 2.2122351875833357 3.508456876544701 0 0 0
191 2 9.602252064672918 2.8113787848688196 4.520883943723809 0 0 0
192 2 0.8010405119523974 9.869314662279475 7.761726163781977 0 0 0
1729 1 12.50067365101476 2.6576611294860926 14.725176408913667 0 0 0
1730 1 5.713858042813304 5.574367174613254 15.106337935066426 0 0 0
1731 1 11.911173954797 7.685683001800425 14.911397215883175 0 0 0
1732 1 2.6559471309177183 4.48677166221531 16.742573602282324 0 0 0
1733 1 4.255130511868153 11.768009568009042 24.24937058227261 0 0 0
1734 1 7.616386595700792 0.11657237406658807 14.582150698003616 0 0 0
1735 1 5.608239476869527 9.978957701309733 23.039491050746054 0 0 0
1736 1 5.68745624398809 10.894903822607448 13.749081862504196 0 0 0
1737 1 9.556638843847068 11.814965968647545 13.324139341059295 0 0 0
1738 1 12.158602715813936 0.42514988740466314 21.159783304944504 0 0 0
1739 1 5.378053789083211 7.535637495968224 24.036018426855748 0 0 0
1740 1 4.474249507135259 3.4749279253993 14.183329837435394 0 0 0
1741 1 11.878907975283585 11.159003577019439 17.31527884763639 0 0 0
1742 1 3.635978360986033 7.802151418061155 15.566488162565701 0 0 0
1743 1 9.471485885563125 9.661062692442178 22.661189029217407 0 0 0
1744 1 11.165276555937917 5.427686477733794 17.67753624656376 0 0 0
1745 1 1.3240936400452807 3.489101759621722 12.795199773806198 0 0 0
1746 1 0.9546082257933534 6.618448208543534 16.982803361834797 0 0 0
1747 1 10.292836336873979 9.784115368730482 15.180870570530859 0 0 0
1748 1 8.093249007197004 5.452092885879312 22.749301752749925 0 0 0
1749 1 8.059209759299344 4.965411491688199 14.211141008918649 0 0 0
1750 1 2.6733013913088888 2.662974602446202 21.111306688365747 0 0 0
1751 1 4.848288124826646 6.826428541399044 19.483426977625914 0 0 0
1752 1 4.310048674390504 10.407022307261881 15.8709978570992 0 0 0
1753 1 5.601626854556312 4.664734069659667 17.571542570302604 0 0 0
1754 1 11.610067247953852 2.1558774598557493 23.638654362482104 0 0 0
1755 1 7.905610222927563 8.77078969011599 15.969854519031717 0 0 0
1756 1 5.744756510064543 5.390150730985282 21.62653291705689 0 0 0
1757 1 2.2426510199162646 6.749667938007538 19.244610745412817 0 0 0
1758 1 10.46257411561216 7.6338475789697355 19.163350996992648 0 0 0
1759 1 7.6090072463548655 3.992803230187115 19.139373554478425 0 0 0
1760 1 5.455708469025674 1.7498168075286942 24.19652748982367 0 0 0
1761 1 1.9912848194269699 11.714154105227955 15.964618518281862 0 0 0
1762 1 2.0954570322030075 5.267487884278781 21.492242025444234 0 0 0
1763 1 6.905716875455415 8.458427269857529 13.259664683870005 0 0 0
1764 1 12.205803026568613 6.366723745073024 22.784239841880833 0 0 0
1765 1 5.828393187898432 2.236580022713408 20.58946272001185 0 0 0
1766 1 7.886553884820089 0.9179380733592517 21.718698474077623 0 0 0
1767 1 0.9211680707156213 1.896093640536585 19.46569150783753 0 0 0
1768 1 9.569486474175399 2.3256752754574714 18.52682497422111 0 0 0
1769 1 9.164801248285633 3.0027995448009883 23.231650177285246 0 0 0
1770 1 1.5839483074279277 8.480546580636943 13.578755889692914 0 0 0
1771 1 11.480907292953301 3.6999281872339305 19.662844098535516 0 0 0
1772 1 11.920679853155239 0.5326740918990337 13.291662032236472 0 0 0
1773 1 7.726126429565626 2.522589546368306 13.11430440136464 0 0 0
1774 1 9.02754562211376 9.748532831220562 19.844921014432927 0 0 0
1775 1 2.369130315341059 11.269841467973741 20.081721495426038 0 0 0
1776 1 7.6537743878462035 11.803060454762432 17.126746860030348 0 0 0
1777 1 6.278576209728615 9.66984712131843 20.327729532944552 0 0 0
1778 1 7.943853115167083 11.599040352283296 23.75333544668135 0 0 0
1779 1 5.803342379867739 0.8260081162796863 18.42820892633034 0 0 0
1780 1 1.2768057929838712 11.123266195172729 13.502499125831331 0 0 0
1781 1 4.451776451348038 10.683565608882365 18.45240311589123 0 0 0
1782 1 10.839221050052483 6.336661001492676 12.862134926511965 0 0 0
1783 1 1.4533885448995276 11.375641372709046 22.528324916888256 0 0 0
1784 1 5.798966530193641 1.9449804354652471 15.86040407567089 0 0 0
1785 1 8.967703382499916 7.5773050243544455 24.223047315469273 0 0 0
1786 1 10.13730561846176 5.675884558334215 21.10702070380466 0 0 0
1787 1 2.7384256479765514 7.06765955254411 23.874954581417324 0 0 0
1788 1 37.14707396171917 9.143366773986124 22.283890205777357 -1 0 0
1789 1 9.76528977364618 12.404180446058671 19.91211475575981 0 0 0
1790 1 1.6561252731079934 1.6727963320706207 17.00525507968185 0 0 0
1791 1 10.298682309770289 3.6494837104924396 15.962960155246346 0 0 0
1792 1 0.5694099088023958 8.878173161887327 19.734073092456903 0 0 0
1793 2 11.457089743013674 3.434119082943398 15.132320722419117 0 0 0
1794 2 5.972914096003671 5.344352607578886 16.15904195173765 0 0 0
1795 2 37.26671099744515 7.381722721844519 15.584747313764682 -1 0 0
1796 2 3.515231324261133 4.589495520033133 17.087016789250853 0 0 0
1797 2 3.298035553959776 11.68264659384661 24.329950791156694 0 0 0
1798 2 6.509482803812119 12.015476356461294 14.318538464685979 0 0 0
1799 2 5.369365263649704 8.950164938239032 23.26366375669912 0 0 0
1800 2 6.396463050262896 9.892137474043354 13.518983226479486 0 0 0
1801 2 8.94047977689292 11.639026457319366 12.614909515845014 0 0 0
1802 2 37.06022095853251 0.9176297477363008 20.779933970767072 -1 0 0
1803 2 5.963857657326377 6.892274050135001 23.82537715137156 0 0 0
1804 2 5.130883159434917 4.509394495692456 14.447000785379696 0 0 0
1805 2 11.243982307812406 10.58524080394957 16.605023312609905 0 0 0
1806 2 3.104360371664924 7.864495471725673 14.648891420561595 0 0 0
1807 2 8.630888035567429 10.53349968498195 23.225815719595015 0 0 0
1808 2 11.256183476359308 4.819407470793681 18.490125977210813 0 0 0
1809 2 0.5921246777234142 2.7996338189153684 24.43389572015016 0 0 0
1810 2 0.015123627872210142 6.022214218083595 17.31685771140711 0 0 0
1811 2 9.337037260767373 9.484912947086592 15.646472121222251 0 0 0
1812 2 9.21106098560324 5.786696610753183 22.115093695664715 0 0 0
1813 2 7.816068159429336 4.167972669774011 13.92283940205326 0 0 0
1814 2 3.6348695567491767 2.609203897244548 21.065845973555955 0 0 0
1815 2 5.45826270147764 6.191528572661872 20.41612064904526 0 0 0
1816 2 4.706792442388003 10.866018417164192 14.580291990263582 0 0 0
1817 2 6.631463190350141 4.463577162514711 18.42426880818911 0 0 0
1818 2 11.43502466244996 1.45428617390687 24.402545077164 0 0 0
1819 2 7.569837123085639 8.505887721679485 15.052875974082662 0 0 0
1820 2 5.427200478671221 4.663076549961257 22.04423641647609 0 0 0
1821 2 3.4777356555826078 7.051247824016362 19.297117948623292 0 0 0
1822 2 11.246466630578462 8.022588268635424 19.16840193512092 0 0 0
1823 2 8.366666628579313 2.9072222054468497 18.831735667007 0 0 0
1824 2 4.7825591523516735 2.092706201895868 24.621666300741907 0 0 0
1825 2 1.3125323931752555 11.364238593732969 16.597799800779057 0 0 0
1826 2 1.238642293850076 5.386399086138362 21.935182026115914 0 0 0
1827 2 7.651623798530784 8.222587579957532 12.902141305884332 0 0 0
1828 2 11.699252349985514 6.1163064850787086 23.485084233864644 0 0 0
1829 2 5.772635947138266 1.5088268427699676 19.635255285859845 0 0 0
1830 2 8.36971959938549 1.6341980108742613 21.906088570441863 0 0 0
1831 2 1.7045470450426372 2.139577062123094 20.01356318687862 0 0 0
1832 2 10.532995088038833 2.842473894393988 19.355479495624575 0 0 0
1833 2 8.76207021569596 3.701977588186443 22.755154468314302 0 0 0
1834 2 0.643334019635642 8.149472844640382 13.754560784247682 0 0 0
1835 2 10.798799677647882 3.972299356605785 20.41501864646459 0 0 0
1836 2 10.885110428113682 12.745443437710128 13.443015250924399 0 0 0
1837 2 6.709073750948897 1.9048489817595717 24.5945176428342 0 0 0
1838 2 9.276769328898844 10.633488164845152 19.540495931087417 0 0 0
1839 2 2.107628768814217 12.072788504121709 19.609034047012628 0 0 0
1840 2 6.939957491631743 12.423064355293105 17.752944646935237 0 0 0
1841 2 5.706579464339997 8.865111189911524 20.008588436562476 0 0 0
1842 2 7.853940390635125 12.487444010549604 23.02870595230189 0 0 0
1843 2 4.861893327785992 37.071614150441334 18.595207596126844 0 -1 0
1844 2 0.37360347876211353 11.618096469374 13.30465146772235 0 0 0
1845 2 4.915466784590949 10.522765420314615 17.24315332299312 0 0 0
1846 2 11.30951216139692 6.8927191507031935 13.629679283433461 0 0 0
1847 2 1.9866477835081808 11.345730943771306 21.77689961602743 0 0 0
1848 2 5.102795982447353 2.5870802767739876 15.492780469881708 0 0 0
1849 2 9.125101466350037 8.2263911804559 23.524196024247118 0 0 0
1850 2 11.201532025822484 5.970006515190311 21.73576048907875 0 0 0
1851 2 2.492152671860941 6.953441720295224 22.96660931522402 0 0 0
1852 2 37.29181994644576 8.978145362422074 21.278035555769225 -1 0 0
1853 2 9.0252803221578 12.540345330839642 20.56674401124364 0 0 0
1854 2 1.5041433567887161 0.437281264481705 16.643556516701576 0 0 0
1855 2 10.330491228707093 4.309874630103652 16.807135692355956 0 0 0
1856 2 1.6173602573320227 7.788132790104339 19.610482368263952 0 0 0
1857 2 12.722642508244062 3.2702628354472774 14.020651222902243 0 0 0
1858 2 6.7996410840892185 5.576837293470093 14.753091067537682 0 0 0
1859 2 11.456064147963817 8.477609373310388 15.217071374489448 0 0 0
1860 2 2.1813317047337186 3.308048960189429 16.96918493552763 0 0 0
1861 2 4.780268544375391 11.09895362233222 23.64077446917696 0 0 0
1862 2 7.2866233763283415 12.218559000426184 15.917211141985174 0 0 0
1863 2 5.771112694403239 9.936665581423295 22.040740825596803 0 0 0
1864 2 5.088144670203986 11.167647302747168 13.121409406824757 0 0 0
1865 2 9.09573734113814 11.827379194976826 14.206820097304906 0 0 0
1866 2 11.99301695478118 1.1470331111406944 21.871875209267277 0 0 0
1867 2 4.0492302479650935 7.271437045584711 23.71918967265304 0 0 0
1868 2 3.5818685993362633 3.424455036863672 14.224349415088124 0 0 0
1869 2 11.995154050688386 10.580905815224936 18.19621372824317 0 0 0
1870 2 4.235333232811943 7.151023312294533 15.197376720109208 0 0 0
1871 2 10.404601547090637 9.614951020465385 22.657594649555485 0 0 0
1872 2 10.59542883777964 6.156802554196756 17.87346577436088 0 0 0
1873 2 1.641583620272056 4.18590156978555 12.251055200964768 0 0 0
1874 2 1.4509923902258568 5.840841687485472 16.702249913062705 0 0 0
1875 2 10.064170854467546 10.223509655411986 14.416549074637265 0 0 0
1876 2 8.371950484092498 6.131058140161157 23.34161428022124 0 0 0
1877 2 8.784260871101347 4.871085249477319 14.959636649055179 0 0 0
1878 2 2.173540833870683 4.009651133524998 21.37788085818462 0 0 0
1879 2 4.866056553323685 6.144355974868463 18.847043594947866 0 0 0
1880 2 4.203611775513592 9.341352601571606 15.663266030923154 0 0 0
1881 2 5.5994555692095735 3.782781038618523 17.521682987612067 0 0 0
1882 2 10.508776255030748 2.8730962977467556 23.54928871750282 0 0 0
1883 2 7.758003696104574 8.16372619413887 16.866971918977423 0 0 0
1884 2 7.01681195303512 5.326899848473301 21.998320775178303 0 0 0
1885 2 1.7593893176913418 6.601312040614989 18.010895138829422 0 0 0
1886 2 9.687217289798054 8.643099381960418 19.085608989420134 0 0 0
1887 2 8.155977830717163 4.76974839977432 19.414396288124188 0 0 0
1888 2 4.764808556556735 0.5754336452255533 24.227661600243568 0 0 0
1889 2 3.1493221629841677 10.986672829490512 15.9430877709025 0 0 0
1890 2 2.1741254257289317 5.867988715447672 20.14191110945551 0 0 0
1891 2 6.131147154361182 7.858645981055129 12.420492288631419 0 0 0
1892 2 12.316607882652379 7.68775737016468 22.70657844097802 0 0 0
1893 2 6.286166279184338 2.892283464984298 20.131387099231567 0 0 0
1894 2 6.829229942522772 1.4278983146911424 21.271478203433382 0 0 0
1895 2 1.250708406111271 1.6878098816785423 18.187801883337958 0 0 0
1896 2 9.415750512682688 1.4659488534904177 18.878903950945393 0 0 0
1897 2 8.546927956810983 2.691696960870824 24.42247032902486 0 0 0
1898 2 1.5060521150379629 9.80752528387208 13.291142724558979 0 0 0
1899 2 12.594443724511882 3.0012615419718727 19.706642370335537 0 0 0
1900 2 12.152727002865218 1.2514186006401544 14.364557752277223 0 0 0
1901 2 7.551275883470118 1.6407426868474688 13.64503149385104 0 0 0
1902 2 9.459785313440245 9.660075944748474 21.04375318631291 0 0 0
1903 2 3.217454810972654 11.062405489100854 19.550666973189 0 0 0
1904 2 7.461320185459786 10.877915488619973 17.166272458046677 0 0 0
1905 2 7.245487261557023 9.650386921890533 20.10736760904334 0 0 0
1906 2 7.090602851123587 11.17701719171808 24.029883583103743 0 0 0
1907 2 5.558846712761404 1.4224172514313862 17.36487435575568 0 0 0
1908 2 1.5349577778669012 11.54302872158633 14.690090373896938 0 0 0
1909 2 5.209662866438705 10.466018734444416 18.931095665243312 0 0 0
1910 2 10.363788482423857 5.9232133134077865 13.61429325915659 0 0 0
1911 2 0.6240927753312782 12.195484630651553 22.04773749325186 0 0 0
1912 2 6.443730934600064 1.307890035519302 15.419884939421104 0 0 0
1913 2 9.310812079344956 7.271540090907623 11.87818147843051 0 0 0
1914 2 10.332043516959521 6.495591762397526 20.434233101211667 0 0 0
1915 2 2.0202519377163384 7.788674251036665 24.75567160853862 0 0 0
1916 2 0.6886005144931298 10.272696146250807 22.653794160167283 0 0 0
1917 2 10.755354090463683 12.636439316499622 20.774739096316633 0 0 0
1918 2 1.2355805011763372 1.8966563013766602 16.20331574262005 0 0 0
1919 2 9.777338387384495 3.1639189822688083 16.573330932968464 0 0 0
1920 2 1.0728210801954141 9.796367969052373 19.870343388269305 0 0 0
3457 1 12.572204465406848 2.6738396946130316 27.322726888920055 0 0 0
3458 1 5.719922614397078 5.823194863163801 27.43063186474581 0 0 0
3459 1 12.002777785552587 7.613101323201325 27.402100826038385 0 0 0
3460 1 2.5782552376399708 4.34773599939904 29.582319226725126 0 0 0
3461 1 3.920579190763646 11.929265654578323 37.030079032983394 0 0 0
3462 1 7.150675720045048 37.06012460939315 27.10854183023054 0 -1 0
3463 1 5.852817725432381 10.138431201856624 35.50501025259752 0 0 0
3464 1 5.805933547213245 10.886980104938473 26.125075626290005 0 0 0
3465 1 9.196980001970331 12.00824521513307 26.18319436758959 0 0 0
3466 1 11.855665209207812 0.8372656673198704 33.83311035434583 0 0 0
3467 1 5.346886947576827 7.515496646274998 36.40904973006889 0 0 0
3468 1 3.8282512465876124 3.2244172140869773 26.289347172191285 0 0 0
3469 1 12.336230839245095 10.540997786807491 29.730770581017616 0 0 0
3470 1 3.9137450558337816 8.084940279110636 27.269833573682412 0 0 0
3471 1 9.486143119481621 9.646924636150477 35.12364374640505 0 0 0
3472 1 11.273628844284156 5.501214684288174 30.126289045750593 0 0 0
3473 1 0.9375521896827733 3.414259330466006 25.12550759872409 0 0 0
3474 1 1.0251642215259587 6.347724937824713 29.308475658327595 0 0 0
3475 1 10.33007485864634 9.774504943235664 27.652588758424482 0 0 0
3476 1 8.065962316164596 5.488124259290307 35.16146311353306 0 0 0
3477 1 8.748061978692528 5.050820517499438 26.471511391958956 0 0 0
3478 1 2.865173381425298 2.8697962733484705 33.71989336288654 0 0 0
3479 1 4.973276365343139 6.7423839151513745 32.49599730399174 0 0 0
3480 1 4.2982367319293004 10.375952916958056 28.42487234564673 0 0 0
3481 1 5.551284410753716 4.528476424097827 29.904448975935892 0 0 0
3482 1 11.88535337789111 2.4650781655741723 36.227256223019886 0 0 0
3483 1 7.711078138663036 8.807570796397739 28.341529070309825 0 0 0
3484 1 5.456742242189678 5.469969038705298 34.74638861240355 0 0 0
3485 1 2.284644537843401 6.995077081481649 31.834969015601505 0 0 0
3486 1 10.3444586303269 7.613033467925904 31.647679465720948 0 0 0
3487 1 7.343954112319069 4.111016669167847 31.717281421241292 0 0 0
3488 1 5.2737672380309135 2.8267148218198312 36.78347833286089 0 0 0
3489 1 1.7917918348555832 11.64931776886782 28.565609272624982 0 0 0
3490 1 1.8473469651845333 5.317813209769208 33.75755027384579 0 0 0
3491 1 7.089503205229539 8.606504570978101 25.885771623680263 0 0 0
3492 1 12.090820588481142 6.488861587759616 35.42022861243566 0 0 0
3493 1 5.42474309454845 2.560929001750526 32.9184943047889 0 0 0
3494 1 7.783025415153757 0.9357208434699091 34.28934449791736 0 0 0
3495 1 1.1476028089924746 1.9386865136099192 32.00145227110562 0 0 0
3496 1 9.252819831314916 2.3852872632444226 31.157803567445697 0 0 0
3497 1 9.018685837147682 2.8663774431514573 35.52550076639427 0 0 0
3498 1 1.6576997272483835 8.49177384280092 25.85324883398494 0 0 0
3499 1 11.473993876106581 3.7267751309756445 31.820387487504945 0 0 0
3500 1 11.924735081145116 0.5785341059676147 25.748725260239752 0 0 0
3501 1 7.712577968790443 2.5287294999274286 25.35716078279514 0 0 0
3502 1 8.940087245546968 9.682494344309987 32.50943587381604 0 0 0
3503 1 2.4123464536391555 10.94797278066737 32.162387923111346 0 0 0
3504 1 7.670245531236542 11.22073468996129 29.26817111931662 0 0 0
3505 1 6.240296186866707 9.3911015457784 32.926082372298914 0 0 0
3506 1 7.919978044687644 11.507128120877768 35.90031188126537 0 0 0
3507 1 5.464288079364314 0.926617696744108 30.741885683371365 0 0 0
3508 1 1.4108391416373505 11.127575956612299 26.00180193280089 0 0 0
3509 1 4.731539977556214 10.839469358993894 31.069243156699134 0 0 0
3510 1 10.825537481782892 6.020032763768008 25.292744110570744 0 0 0
3511 1 1.225572903114903 11.413748682846448 35.30036160480027 0 0 0
3512 1 5.595268463740484 2.159600701926939 28.38438840015114 0 0 0