LAMMPS data file via write_data, version 24 Dec 2020, timestep = 1000

5184 atoms
2 atom types

0 37.3341 xlo xhi
0 37.3341 ylo yhi
0 37.3341 zlo zhi
0 0 0 xy xz yz

Masses

1 15.9994
2 1.00794

Atoms # atomic

1 1 12.662876694242694 2.66654358916506 2.718159057571518 0 0 0
2 1 5.357377209687968 5.450220030253201 2.4925956650421313 0 0 0
3 1 12.002023618637956 7.463111421647256 2.4326260508232544 0 0 0
4 1 2.8689368058789166 4.3691448751246105 4.4397647666797795 0 0 0
5 1 4.046877098569818 11.959838826742848 11.764322186157731 0 0 0
6 1 7.27374258017365 0.36251757348481656 2.24470990808508 0 0 0
7 1 5.62895368298052 10.131919180039905 10.386088500940293 0 0 0
8 1 5.73630139238237 10.683011684934854 1.3883298554852468 0 0 0
9 1 9.485956638953665 11.854663661579046 0.966453655889924 0 0 0
10 1 11.877115262923883 0.4770784531451833 8.993189067172382 0 0 0
11 1 5.473597663834817 7.571646836395503 11.246533543057401 0 0 0
12 1 3.878670214052095 3.3598045249570156 1.5595321075016841 0 0 0
13 1 12.070506225743516 10.356759332430945 4.778145489786776 0 0 0
14 1 3.9060494318621344 7.792787166205482 2.6966015811370982 0 0 0
15 1 9.511618404148548 9.639051588776306 10.094210459782165 0 0 0
16 1 11.342974402194452 5.507782328182719 5.368029257617561 0 0 0
17 1 1.2693302700659053 3.3056556145031606 0.2653926325132834 0 0 0
18 1 1.4633562901725101 6.562558624406118 4.766449952115333 0 0 0
19 1 10.093060287185972 9.86451654674026 2.954371737442534 0 0 0
20 1 8.400677990529797 5.442530890692775 10.1983268156938 0 0 0
21 1 9.015097186113884 4.733896093064615 1.9469344166917129 0 0 0
22 1 2.888536861385256 3.1702483854167443 8.574507736948362 0 0 0
23 1 4.903727649646873 6.961952202417653 7.321246491103439 0 0 0
24 1 4.2792307161360466 10.352312893487092 3.577070472808422 0 0 0
25 1 5.47923853530781 4.365392860344163 4.756331325252692 0 0 0
26 1 12.110611581827053 2.2619987774435764 11.114898716646262 0 0 0
27 1 7.6579545822380535 9.03015158293254 3.5151107360892073 0 0 0
28 1 5.701398349761001 5.410533265933269 9.554686633667732 0 0 0
29 1 2.1947904748313776 7.199369752210139 7.382021336864135 0 0 0
30 1 10.232152263552088 7.4963537398643805 6.845210768019449 0 0 0
31 1 7.466053806344981 3.982520319703899 6.590277004157939 0 0 0
32 1 5.294279988020501 2.46419591415772 12.013300039125449 0 0 0
33 1 1.9352386399856498 11.6881299251252 3.7333994237161656 0 0 0
34 1 2.021310393664061 5.617134437115218 9.45265370089754 0 0 0
35 1 6.904730414712143 8.517015780185206 0.9262074453385032 0 0 0
36 1 12.395733688545373 6.5353189594295005 10.473724386629716 0 0 0
37 1 5.595654565712957 2.398892212361767 8.058022991495234 0 0 0
38 1 7.944436181857583 0.9492974765143907 9.209791543718978 0 0 0
39 1 0.9318541187244236 2.050181948274921 7.114318651268288 0 0 0
40 1 9.554983479433863 2.2275048005070746 5.972377420022182 0 0 0
41 1 9.076461222501376 2.9214345891193787 10.889497296463846 0 0 0
42 1 1.833704014762286 8.413767966315643 1.2557418163960077 0 0 0
43 1 11.338608923496183 3.780704906963341 7.196028261704737 0 0 0
44 1 11.838238344522573 0.7166481667385605 0.9344770846277302 0 0 0
45 1 7.8475156917716555 2.741059186361044 0.621692029211681 0 0 0
46 1 8.849334828992415 9.72945279226534 7.545466491753435 0 0 0
47 1 2.0746728292859413 11.006647667484765 7.499836172713707 0 0 0
48 1 7.640563124670279 11.53406772001831 4.679638205800058 0 0 0
49 1 6.22822202678436 9.289915776220445 7.752315114905381 0 0 0
50 1 7.891872434553432 11.316402553827473 11.242907619688559 0 0 0
51 1 5.600141610338796 0.8101533573420282 6.004873113050096 0 0 0
52 1 1.630075827150151 11.207425651069224 0.9804620782230986 0 0 0
53 1 4.672657444761374 10.89190121417425 6.123264880277255 0 0 0
54 1 10.713236224727774 6.299240249044412 0.4531595683286058 0 0 0
55 1 1.2095461925686724 11.315361614974602 10.152900436167513 0 0 0
56 1 5.663435723713028 1.962693025739391 3.694015800312077 0 0 0
57 1 8.723829811513404 7.7372842482352455 11.542201593829464 0 0 0
58 1 10.480082281977062 5.724718834618841 8.707153623933962 0 0 0
59 1 2.9135147039083 7.034958702650905 11.687949298517282 0 0 0
60 1 36.97450854564876 9.189364543223883 10.302282284958272 -1 0 0
61 1 9.536606197385176 12.385034458449878 7.535813018253803 0 0 0
62 1 1.5504561793865768 1.5478054199170064 4.612341856315299 0 0 0
63 1 10.44166265748123 3.620312901213046 3.6936746422055484 0 0 0
64 1 0.26567948854941026 9.06140376487228 7.728628025667637 0 0 0
65 2 11.62966135027616 3.0809875422038573 3.278760934196897 0 0 0
66 2 5.574725324709484 5.057566000049362 3.710154770853131 0 0 0
67 2 37.235569298098845 7.307105313308083 3.3258024582218275 -1 0 0
68 2 4.136750934366206 4.110808711956836 4.83066457586928 0 0 0
69 2 3.0225689709986097 11.726861855797893 11.754522632174883 0 0 0
70 2 6.749758150011183 11.83294996306788 1.8332566649920832 0 0 0
71 2 5.648479274855356 9.347365140959147 11.030109175544508 0 0 0
72 2 6.538891916948141 9.490520486627894 0.9745725694223221 0 0 0
73 2 8.93569628598784 11.744433982901208 0.3030804889282721 0 0 0
74 2 0.12953518993779578 1.0867547227202066 8.227508457649542 0 0 0
75 2 5.445543313893036 6.493345319490348 10.917483023614972 0 0 0
76 2 4.376055484447945 4.234815645574774 1.9624145004714573 0 0 0
77 2 11.100923600048493 10.205742515355134 4.426672517534413 0 0 0
78 2 2.695887513581742 7.760867960470308 2.120380748444935 0 0 0
79 2 8.85985913938323 10.515939934783114 10.866382827316928 0 0 0
80 2 11.505332662458036 4.6520924580058995 6.241122834605717 0 0 0
81 2 0.9680963404194768 2.752807074005222 12.191359680766878 0 0 0
82 2 0.5129276659808004 6.117039681417061 5.011238094191559 0 0 0
83 2 9.08728691497701 9.59968456634807 3.124129030215788 0 0 0
84 2 9.13684342164872 5.482324039856151 9.586005296312331 0 0 0
85 2 8.627831116566853 3.8748252470685385 1.4606352714590272 0 0 0
86 2 3.975270977559324 3.119462012830291 8.466720027518507 0 0 0
87 2 5.033454870049647 6.159421793312371 8.33007834531153 0 0 0
88 2 4.906969574308885 10.547902408097034 2.788434379112059 0 0 0
89 2 6.693279935262818 4.198826315732045 5.5947335662451145 0 0 0
90 2 12.087874725921782 1.3017701759247853 12.186063440414433 0 0 0
91 2 7.267220962338637 8.603394550976725 2.457797960994668 0 0 0
92 2 5.509168006308432 4.565081821689658 9.850069659553606 0 0 0
93 2 3.3017531774873663 7.4006474287591955 7.44213029268225 0 0 0
94 2 10.998313106224805 8.067446118522367 6.806900765161431 0 0 0
95 2 8.433071436482978 3.068292937805533 6.258269038615981 0 0 0
96 2 4.5654045316597704 3.1257365509128503 12.881127485352724 0 0 0
97 2 1.2728791811171096 11.287778919697114 4.17495723787185 0 0 0
98 2 1.1253201745277008 5.882006930773613 9.719670463572935 0 0 0
99 2 7.912908691301675 8.358626979459281 0.1844111251615143 0 0 0
100 2 11.911524139329991 6.352441534340138 11.37450863313156 0 0 0
101 2 5.448252279569401 1.8404806246277043 7.332228025403052 0 0 0
102 2 8.499888768396305 2.056492178091607 10.030289527547486 0 0 0
103 2 1.72132434927853 2.3584924017268487 7.695298099319598 0 0 0
104 2 10.120827623933302 2.723428773681013 6.582130870942963 0 0 0
105 2 8.92767281791484 3.9147112482969773 10.65803817262834 0 0 0
106 2 0.5777245947417669 8.415628240491166 1.7259787580297157 0 0 0
107 2 11.36629819367679 4.45861768744751 7.857717020423934 0 0 0
108 2 10.846327483001762 12.463012970143014 0.8898198864584107 0 0 0
109 2 6.396951186300188 2.5600025421056194 12.778222540607146 0 0 0
110 2 9.225317370155247 10.683794197231279 7.444334262801953 0 0 0
111 2 1.6296765033590799 11.82578783173441 7.305570035622173 0 0 0
112 2 6.812726548484209 12.299183265941478 5.448229091762664 0 0 0
113 2 5.9842436096986695 8.36905211072744 7.765194412156994 0 0 0
114 2 7.785731107351757 12.007305423268043 10.702637353101158 0 0 0
115 2 5.055761037094491 37.30957214523718 5.887050159241955 0 -1 0
116 2 0.7922213793396283 11.439969936587678 0.43896410585324497 0 0 0
117 2 4.70422869387352 10.43341463570357 4.875687399448477 0 0 0
118 2 11.132576007374343 6.706519394105241 1.2853341258742998 0 0 0
119 2 1.913536251351543 11.157694590693804 9.506702428785735 0 0 0
120 2 4.958321320735811 2.037148052695467 3.0011484050632196 0 0 0
121 2 9.073802315967544 8.561779197183908 10.59677856625852 0 0 0
122 2 11.237363528582287 6.039038302626014 9.429848082215733 0 0 0
123 2 2.8751579903391713 6.877664850009056 10.707753415697198 0 0 0
124 2 37.24541257774705 9.254301683503904 9.052899578421163 -1 0 0
125 2 8.85803046225247 13.056885762458679 8.49679550691654 0 0 0
126 2 1.8698611703381587 0.6715065406387802 4.1441737532391905 0 0 0
127 2 10.857994760757398 4.50497002043849 4.455976884688085 0 0 0
128 2 1.4574789117997855 8.3638648767499 7.676125293598281 0 0 0
129 2 12.891887369324431 3.1181767946155183 1.8703868369421695 0 0 0
130 2 6.315218686150834 5.66621347595808 2.035937516104819 0 0 0
131 2 11.467301897262525 8.38225014329023 2.5672768408651025 0 0 0
132 2 2.4220424124836786 3.744537525960516 4.868244081543815 0 0 0
133 2 4.69193668958158 11.264867553164045 11.251837270019408 0 0 0
134 2 7.510998327051583 11.933466400497792 3.4734951456211283 0 0 0
135 2 5.830766262194202 9.797277993897605 9.131556131606363 0 0 0
136 2 5.363566805957199 11.492166197798264 0.8958067165710132 0 0 0
137 2 8.571366172716031 12.3895525153681 1.7343447235858238 0 0 0
138 2 11.961685873804582 1.236574969437389 9.571027669002202 0 0 0
139 2 4.170140828244502 7.470768784260442 11.491927485057662 0 0 0
140 2 2.973182975027407 3.2606379216733847 1.5703613394210334 0 0 0
141 2 12.06371508884886 9.861334170750897 5.738513318764498 0 0 0
142 2 4.58545780770227 7.102308824973037 2.780886645291548 0 0 0
143 2 10.737018881967646 9.553091201520507 10.128766477038884 0 0 0
144 2 10.941757158718358 6.43044081162142 5.574803492546015 0 0 0
145 2 1.5423189820051004 4.165097340466597 37.182217238557165 0 0 -1
146 2 2.0910984912100714 5.522901304777862 4.412696281132629 0 0 0
147 2 9.869785820014169 10.286338472785667 2.1062396812474957 0 0 0
148 2 8.385630923453293 6.690132069884432 10.884466305855108 0 0 0
149 2 9.652821312095826 4.217524517448292 2.517755757895811 0 0 0
150 2 2.780454260622954 4.1570807049074325 8.797344259994505 0 0 0
151 2 4.728789681864028 6.245744113206906 6.677549617092892 0 0 0
152 2 4.177008540136559 8.968973551839358 3.243868588496653 0 0 0
153 2 5.634100187539139 3.418972641391281 4.343264875398242 0 0 0
154 2 11.268700903824326 2.8951308116114176 10.945295447873866 0 0 0
155 2 7.7163796205138935 8.22987159181479 3.943121812250566 0 0 0
156 2 7.086884557287812 5.199514225671063 9.867458452368263 0 0 0
157 2 1.6937759635971887 6.886132970978367 6.134566332880999 0 0 0
158 2 9.59034065670089 8.596624809800582 6.9123838206859425 0 0 0
159 2 7.71707416166384 4.827503281647948 7.187519385962214 0 0 0
160 2 4.832988363485143 1.522381375097217 11.631677938131594 0 0 0
161 2 3.192481879711852 11.307873221115296 3.723336885865762 0 0 0
162 2 2.1174263963179283 6.238637542507594 8.327808200101407 0 0 0
163 2 6.138250670557586 7.734480523017237 0.1178216007467586 0 0 0
164 2 12.39549499708149 7.498375484191817 10.316302285851334 0 0 0
165 2 6.2881819986637595 3.0071421220739856 7.732097495907457 0 0 0
166 2 7.004366762620818 1.3965632780838917 8.938803398903124 0 0 0
167 2 1.1780955785626608 1.7327730788205031 5.951298448531565 0 0 0
168 2 9.70598230220038 1.0721452721103897 6.419917583277181 0 0 0
169 2 8.559890639221733 2.5800172460413493 12.079171772345257 0 0 0
170 2 1.9912548698261179 9.393793184294042 1.1678064714177965 0 0 0
171 2 12.271922816638977 2.842325302776821 7.417335072103892 0 0 0
172 2 12.108762095603492 1.2477436373215396 1.8020006178984123 0 0 0
173 2 8.165951889829774 1.9975513553991593 1.002030015178342 0 0 0
174 2 9.408810334464532 9.606032916430056 8.702969061168378 0 0 0
175 2 3.1702098383616573 11.003108264040304 6.837404940878927 0 0 0
176 2 7.380163606431421 10.515923433126366 4.305473255056229 0 0 0
177 2 7.262402393000278 9.376450118078079 7.478043407249694 0 0 0
178 2 6.828646125574869 10.636820345326784 10.824964293480303 0 0 0
179 2 5.687481542663435 1.4940962568662008 5.04460220203002 0 0 0
180 2 1.3889156917600665 11.44455412141161 1.904945501092638 0 0 0
181 2 5.397933264084181 10.414113302425278 6.562579862901588 0 0 0
182 2 9.925003664118973 5.65603675178484 1.4273541071803948 0 0 0
183 2 0.49572486148587924 12.454577617908997 9.541141418832009 0 0 0
184 2 6.725951831831166 1.4770259515942108 3.0924672974256433 0 0 0
185 2 9.73029865134449 7.201351827400364 0.07832350690791694 0 0 0
186 2 10.259857835050415 6.510074387272361 7.630075514624118 0 0 0
187 2 2.1455841675850786 7.940330079827257 12.44958162163382 0 0 0
188 2 0.4371919170528876 10.245863912411467 10.336413184096997 0 0 0
189 2 10.347657307804754 12.63906824706046 8.046655804917332 0 0 0
190 2 0.8513884144316015 2.289234279374074 3.547152793204467 0 0 0
191 2 9.72255145185559 2.9005347028215023 4.702862992165385 0 0 0
192 2 0.7762084112320196 9.801329869409647 7.510962054448636 0 0 0
1729 1 12.513601347353012 2.733664791023437 14.69260249511869 0 0 0
1730 1 5.7336835753770155 5.511634656756621 15.174629273177915 0 0 0
1731 1 11.878694153358959 7.6559833698101 14.878318025443832 0 0 0
1732 1 2.6373928878148387 4.504924744921106 16.731458050114785 0 0 0
1733 1 4.273726599712235 11.763671705612552 24.250460103432424 0 0 0
1734 1 7.587573987947195 0.10040001952810522 14.58554859664303 0 0 0
1735 1 5.626243305754743 9.976206238329317 23.006396018984603 0 0 0
1736 1 5.679482824827406 10.806915187366112 13.76069335990964 0 0 0
1737 1 9.524700701502779 11.788655246920175 13.367762985739983 0 0 0
1738 1 12.168047794443858 0.38315478834750677 21.158169620440745 0 0 0
1739 1 5.370418399962339 7.572085836995451 23.9987944254312 0 0 0
1740 1 4.440102871647554 3.4988156046032732 14.198306215012801 0 0 0
1741 1 11.86553352051644 11.177385481165153 17.35076496599167 0 0 0
1742 1 3.6628880665945935 7.849909573913422 15.58589622877042 0 0 0
1743 1 9.479160918166295 9.681089428799554 22.66935992054002 0 0 0
1744 1 11.125930536138727 5.386250003994145 17.686912246037405 0 0 0
1745 1 1.331220653487927 3.5136363825163306 12.732258678165412 0 0 0
1746 1 0.9310225778658656 6.644276785819264 16.946331755201623 0 0 0
1747 1 10.308106888370663 9.75559592051133 15.180026680129274 0 0 0
1748 1 8.07113659468451 5.455581498420485 22.777744999894043 0 0 0
1749 1 8.11755653452999 4.884497025412646 14.23221903655089 0 0 0
1750 1 2.6424958009174992 2.6815359731311452 21.186364585450615 0 0 0
1751 1 4.8423204683767365 6.8980598702956515 19.55552183320657 0 0 0
1752 1 4.265822535399229 10.40873593529954 15.899369412863232 0 0 0
1753 1 5.529221486210495 4.643354814675588 17.56125589715304 0 0 0
1754 1 11.620794368901366 2.1167495249060333 23.68598506313946 0 0 0
1755 1 7.96438438306213 8.770115660543084 16.00656382759384 0 0 0
1756 1 5.705838923409611 5.345339171848622 21.625867537764357 0 0 0
1757 1 2.2437925179970004 6.707122781999856 19.2167162513271 0 0 0
1758 1 10.457768020822465 7.568968999716757 19.19319132166109 0 0 0
1759 1 7.6549715833008705 3.9727020426216493 19.18069745981378 0 0 0
1760 1 5.482760216263315 1.762868045914041 24.208544182967138 0 0 0
1761 1 2.0265785062890247 11.67962118763075 16.014002187494583 0 0 0
1762 1 2.1494978588715066 5.215569083397785 21.527689322584664 0 0 0
1763 1 6.939213240810448 8.474945519035955 13.285193601305425 0 0 0
1764 1 12.219013258885063 6.314381179984541 22.715735600477263 0 0 0
1765 1 5.809764428402871 2.26330177997002 20.62425721592619 0 0 0
1766 1 7.881365449404521 0.8833019590704635 21.72606603483118 0 0 0
1767 1 0.9644676438207924 1.9175450689540772 19.494234075819815 0 0 0
1768 1 9.552474814352873 2.286260041272044 18.506991060334435 0 0 0
1769 1 9.162220716122784 3.0191732941338207 23.20938142437792 0 0 0
1770 1 1.6045505657933912 8.461137280184085 13.536897118268534 0 0 0
1771 1 11.4252125066882 3.6571045482317106 19.657709450821237 0 0 0
1772 1 11.960402159717693 0.5408489290279404 13.341679760944283 0 0 0
1773 1 7.712378681198745 2.59021199155506 13.093240101681573 0 0 0
1774 1 9.036613913608242 9.668892921049432 19.853540629631386 0 0 0
1775 1 2.3789255334934274 11.270166081805108 20.070343028947573 0 0 0
1776 1 7.634490010335181 11.803270079410883 17.09669599086236 0 0 0
1777 1 6.178605081019658 9.677462997872084 20.30276162099101 0 0 0
1778 1 7.92527340364001 11.587618799250007 23.700804240543405 0 0 0
1779 1 5.76311736602526 0.8032248071919466 18.43306139673332 0 0 0
1780 1 1.276680284580515 11.149586443870174 13.540635638329059 0 0 0
1781 1 4.461870326909971 10.73159104772332 18.48622701052373 0 0 0
1782 1 10.886829511985882 6.336657089518036 12.868494699627792 0 0 0
1783 1 1.425345275664513 11.302767928732077 22.586990461019404 0 0 0
1784 1 5.755378222609781 1.9706401579993567 15.977223180868474 0 0 0
1785 1 8.922162648113733 7.583145871912769 24.237708636928357 0 0 0
1786 1 10.187185102757557 5.632832095113712 21.090527747030258 0 0 0
1787 1 2.715762491632089 7.069098555813083 23.884400591970305 0 0 0
1788 1 37.09535579433214 9.131341928656877 22.271549934335177 -1 0 0
1789 1 9.800478340325459 12.434613020173769 19.90618954952225 0 0 0
1790 1 1.6728970984935578 1.6719547839240898 17.001427604925656 0 0 0
1791 1 10.30728418212784 3.630171041356425 15.975730657284904 0 0 0
1792 1 0.5367254097645173 8.809173111564032 19.753660601848342 0 0 0
1793 2 11.437172946894302 3.139681525480828 15.182841570596814 0 0 0
1794 2 5.858560442234672 5.215851240276701 16.03960068377127 0 0 0
1795 2 37.15743242974095 7.569569066771545 15.53132687867887 -1 0 0
1796 2 3.581039010065232 4.4956895687857665 17.045371700484644 0 0 0
1797 2 3.3191887473047443 11.648347934311111 24.17872896813432 0 0 0
1798 2 6.474640842790043 12.06915730098119 14.229430361649863 0 0 0
1799 2 5.487641644361481 9.091336728645556 23.28667346606099 0 0 0
1800 2 6.551727325927006 9.781092849855607 13.556642163631544 0 0 0
1801 2 8.59899064803121 11.617749147519083 12.542060454540655 0 0 0
1802 2 37.00332983167716 0.9316329036636934 20.720363371856354 -1 0 0
1803 2 6.0592474081976 6.8780669030957755 23.808778953295736 0 0 0
1804 2 5.13935116700679 4.6382647885343 14.424363940884808 0 0 0
1805 2 11.337749622213357 10.670622985419959 16.633756206997024 0 0 0
1806 2 3.174778991745 7.875797600636656 14.375249025630712 0 0 0
1807 2 8.69864117916822 10.666519914005463 23.115517082000526 0 0 0
1808 2 11.310836957698461 4.613024694478345 18.561050524673842 0 0 0
1809 2 0.562125831054466 2.8715892907098772 24.51445144396795 0 0 0
1810 2 37.165375074428304 6.020316315847202 17.46183939384806 -1 0 0
1811 2 9.206499391095976 9.469976713871334 15.529190627688473 0 0 0
1812 2 9.12700408075531 5.726434127513488 22.131773547902007 0 0 0
1813 2 7.931310168496227 3.9275876646882444 14.007738023996591 0 0 0
1814 2 3.561613859537801 2.6254654710709326 21.25901611040391 0 0 0
1815 2 5.516140905307858 6.225330271563459 20.53659300940229 0 0 0
1816 2 4.659064324183263 11.008364434306074 14.734336578188923 0 0 0
1817 2 6.493524079179796 4.488263537728274 18.60756741030154 0 0 0
1818 2 11.594083833785648 1.4049201355973528 24.458139205319625 0 0 0
1819 2 7.870278636059937 8.577902208276884 15.009706754656067 0 0 0
1820 2 5.59093974196171 4.488736309539784 21.928004982587026 0 0 0
1821 2 3.50557192393508 7.010325668604804 19.343664096651917 0 0 0
1822 2 11.300105731340432 7.8764635699215955 19.2863495583564 0 0 0
1823 2 8.305260799268734 2.9739295756972 18.754305424908164 0 0 0
1824 2 4.813543942537393 2.1656010257501683 24.827880821075055 0 0 0
1825 2 1.264689168518756 11.176773952381568 16.574950297901477 0 0 0
1826 2 1.412581364885065 5.569493955625063 21.989743649919053 0 0 0
1827 2 7.658096585626733 8.237106711771563 12.777368584767657 0 0 0
1828 2 11.850722831764045 6.112800247344833 23.531033779311038 0 0 0
1829 2 5.84777904021255 1.338440127333289 19.542488533969752 0 0 0
1830 2 8.162846632928682 1.7695044242081386 21.922144274229634 0 0 0
1831 2 1.7717762916961863 1.9847164568917415 19.97793599287863 0 0 0
1832 2 10.503206420086814 2.7308118439490467 19.26060207877614 0 0 0
1833 2 8.675839362631532 3.687317077635151 22.875047308201626 0 0 0
1834 2 0.6294128423551673 8.148329611980856 13.773608146615645 0 0 0
1835 2 10.881521057692883 3.9712109245446996 20.44943582082118 0 0 0
1836 2 10.900714278620644 12.732853505477442 13.230060957594837 0 0 0
1837 2 6.64389532924789 2.048741395255562 24.72379060207992 0 0 0
1838 2 9.272955691253715 10.613070379399039 19.678839434061224 0 0 0
1839 2 2.3006264267123506 12.179936232648242 19.719088258819284 0 0 0
1840 2 6.916364523895334 12.247612902237732 17.542896410327213 0 0 0
1841 2 5.808267400476798 8.80057367945566 20.05975069392939 0 0 0
1842 2 7.648805906095534 12.381341690180605 22.997360505968437 0 0 0
1843 2 5.049322833721168 36.912937373590985 18.38314616260718 0 -1 0
1844 2 0.39000267816816675 11.66957325937725 13.362377167779023 0 0 0
1845 2 4.750230233046977 10.484759465491843 17.19098232746536 0 0 0
1846 2 11.437296443908263 6.84851607242875 13.590090577005071 0 0 0
1847 2 2.0356607827719846 11.65475481174066 21.82330880044644 0 0 0
1848 2 5.117667690896827 2.6580794816353017 15.520310512468278 0 0 0
1849 2 9.183914443967103 8.236870765252453 23.488970086934025 0 0 0
1850 2 11.311457237482559 5.812269688586191 21.882215870124266 0 0 0
1851 2 2.497592749701688 7.049808023054787 22.891671474517015 0 0 0
1852 2 37.32214346896543 9.041476125993025 21.232621774186516 -1 0 0
1853 2 9.164665744856938 12.597551804483414 20.499513866122864 0 0 0
1854 2 1.5813750243660403 0.3829648121005153 16.741958528766485 0 0 0
1855 2 10.472707706971319 4.32225174409901 16.625906799954745 0 0 0
1856 2 1.5781189042987949 7.7448998378692995 19.689917026674713 0 0 0
1857 2 12.850061723914619 3.456470074948774 14.188467514106916 0 0 0
1858 2 7.030353461250257 5.6213727947754055 14.809271402371813 0 0 0
1859 2 11.330315578411644 8.358017012101737 15.090585771009962 0 0 0
1860 2 2.168160647958592 3.5208200957141083 17.002215267763287 0 0 0
1861 2 4.876105603739731 10.981540563895882 23.462963511340302 0 0 0
1862 2 7.467027057639742 12.173681169130674 15.916490077123418 0 0 0
1863 2 5.564581860992096 9.787821626045064 21.938142880971842 0 0 0
1864 2 5.047089360423116 11.310347095076079 13.179241086057571 0 0 0
1865 2 8.939974255616518 11.933500025755267 14.104089548041681 0 0 0
1866 2 11.961216976093214 1.0025676792788234 21.773016503632128 0 0 0
1867 2 3.9263689725037882 7.340375690547082 23.89034564250909 0 0 0
1868 2 3.4914107979457234 3.6202502960388965 14.107657423926417 0 0 0
1869 2 12.093136078348222 10.468637888292117 18.05813312554398 0 0 0
1870 2 4.332257154902111 7.143168698341917 15.36038945466837 0 0 0
1871 2 10.392713932007835 9.486078952780346 22.779210772807808 0 0 0
1872 2 10.788884288226358 6.238542823332429 18.040102270089154 0 0 0
1873 2 1.530957828872331 4.306827797821687 12.144448653997914 0 0 0
1874 2 1.5157225358342548 5.840925757799343 16.717340639534935 0 0 0
1875 2 9.806895725593652 10.266884193935354 14.398267644947756 0 0 0
1876 2 8.405135361710569 6.177855765375205 23.329566409195465 0 0 0
1877 2 8.775509202865072 4.8448231157371 14.926181529383502 0 0 0
1878 2 2.1677590695128277 3.9892632344469625 21.366543389096382 0 0 0
1879 2 4.764214360619059 6.268783014285384 19.006280747315085 0 0 0
1880 2 4.225808219965969 9.286800064881783 15.704589451292412 0 0 0
1881 2 5.537343019751869 3.6927741646990744 17.564108810982017 0 0 0
1882 2 10.46660828641938 2.767922665967307 23.573436063246668 0 0 0
1883 2 7.535490320620864 8.151880282922129 16.555355780740307 0 0 0
1884 2 6.936709970814995 5.4859217486460885 22.007039627789222 0 0 0
1885 2 1.8086730855949418 6.731611739889123 18.085447816572675 0 0 0
1886 2 9.742654435358741 8.574620968214084 19.15223056392264 0 0 0
1887 2 7.9486164539705 4.941768548987609 19.324070628467908 0 0 0
1888 2 4.800556662969127 0.6459604867685178 24.07537959141206 0 0 0
1889 2 3.1657826499583135 11.058382054434244 15.864022939591957 0 0 0
1890 2 2.1140792039998653 5.8641064279668 20.37555923671592 0 0 0
1891 2 6.307743167605203 7.823066973806266 12.268941455291325 0 0 0
1892 2 12.363226024748998 7.807122313732588 22.70658848525824 0 0 0
1893 2 6.32011777685849 2.9339759529952776 20.220230654380632 0 0 0
1894 2 6.758801395496219 1.3129595855930325 21.299786133769118 0 0 0
1895 2 1.2345406996737789 1.9515078951298923 18.237039438179817 0 0 0
1896 2 9.52548393397717 1.3683677509722436 18.935036790980853 0 0 0
1897 2 8.649437848483434 2.492734770338779 24.497637226595685 0 0 0
1898 2 1.4447604270086551 9.723194495363888 13.364248819047596 0 0 0
1899 2 12.71548323089361 3.2130492739646845 19.40971341751812 0 0 0
1900 2 12.048706033837336 1.3159821841473602 14.199021014532125 0 0 0
1901 2 7.5831860696052535 1.7506981684865663 13.579662877955963 0 0 0
1902 2 9.483324550025534 9.5466765153968 21.223848848267266 0 0 0
1903 2 3.138345433539584 11.000258952410114 19.488584008768104 0 0 0
1904 2 7.605337615332967 10.851833876466305 17.28193193266347 0 0 0
1905 2 7.168950142943076 9.751988565983051 20.199765074633653 0 0 0
1906 2 7.0578507014875 11.237825304360717 23.868026926176903 0 0 0
1907 2 5.642865429237394 1.3684016434922694 17.506298533088472 0 0 0
1908 2 1.4939290474341311 11.562236754357796 14.737916339347922 0 0 0
1909 2 5.160800706321256 10.277503167362308 18.74928078840963 0 0 0
1910 2 10.36182303863679 5.831228113136934 13.471173849847977 0 0 0
1911 2 0.5171767764671489 12.206409963330854 22.00014066343946 0 0 0
1912 2 6.511336665286605 1.4603069625263159 15.379880974508582 0 0 0
1913 2 9.509902271584219 7.310300203332953 11.95656307407082 0 0 0
1914 2 10.338520724514282 6.341903587669758 20.49156128260008 0 0 0
1915 2 1.9743762624787333 7.638019031935187 24.853470985981676 0 0 0
1916 2 0.6910506139925522 10.246256580682976 22.71477401486198 0 0 0
1917 2 10.72587231795046 12.800961568431953 20.787506796744744 0 0 0
1918 2 1.230963317365218 1.9548444521945731 16.108074813838748 0 0 0
1919 2 10.015486370608404 3.06868939292547 16.65939869564166 0 0 0
1920 2 1.1063034408135513 9.593169083493892 19.7490944116815 0 0 0
3457 1 12.59561430756557 2.6081887413732256 27.291832757537797 0 0 0
3458 1 5.712150094601831 5.817449503131903 27.451571480424988 0 0 0
3459 1 11.986242390983277 7.66062145154164 27.35278576922552 0 0 0
3460 1 2.5712263320048394 4.323984519920885 29.582778380799002 0 0 0
3461 1 3.8747729641144617 11.928646522394851 37.048401717604726 0 0 0
3462 1 7.1302849281917196 37.09353656221759 27.125682796111306 0 -1 0
3463 1 5.8292336675157825 10.15217114169392 35.47233304704131 0 0 0
3464 1 5.775859647692663 10.905441918124037 26.192742854411904 0 0 0
3465 1 9.16192438727518 11.989701707717668 26.222990355207717 0 0 0
3466 1 11.846537425601305 0.8111920040437519 33.866516600147676 0 0 0
3467 1 5.330829477016837 7.513173265052005 36.493701469093274 0 0 0
3468 1 3.798863909954121 3.24516398441563 26.225082322357476 0 0 0
3469 1 12.330432510876197 10.577037167720572 29.77235405418982 0 0 0
3470 1 3.931598251416253 8.038789242547294 27.28446192332253 0 0 0
3471 1 9.503930030840827 9.64367543467643 35.12134042940817 0 0 0
3472 1 11.264005963067708 5.5169811420118275 30.150683926619507 0 0 0
3473 1 0.9226267337774599 3.4769688845900193 25.143425751085612 0 0 0
3474 1 0.9794013122226152 6.321942995925181 29.314173894291525 0 0 0
3475 1 10.330485060920648 9.755227419672705 27.63364863239675 0 0 0
3476 1 8.095495281667223 5.522739831872297 35.19556462533097 0 0 0
3477 1 8.712785501912935 5.073023813590714 26.402506012803862 0 0 0
3478 1 2.8893404959042948 2.8785881634151846 33.746980272526024 0 0 0
3479 1 4.981811349899275 6.75114885976291 32.49197203872001 0 0 0
3480 1 4.279134905382505 10.41612913381898 28.447123580028382 0 0 0
3481 1 5.5662860951858475 4.5625436355774 29.89492600401186 0 0 0
3482 1 11.895194458704779 2.495075161572343 36.297837487116404 0 0 0
3483 1 7.712949767060084 8.801101719395824 28.317267671934328 0 0 0
3484 1 5.46291654310596 5.502738180427212 34.745215029526875 0 0 0
3485 1 2.272387855032847 6.999476796322828 31.79534028502629 0 0 0
3486 1 10.334328992394145 7.561157822218506 31.687170352361775 0 0 0
3487 1 7.378349809149575 4.035112438561585 31.776515883972206 0 0 0
3488 1 5.2711686392652135 2.844923997629478 36.777274851606165 0 0 0
3489 1 1.7560525212077749 11.597759589678136 28.558943556580488 0 0 0
3490 1 1.8900827152200987 5.336571472806317 33.78747903399626 0 0 0
3491 1 7.0555443756944 8.58075973789029 25.864883090532608 0 0 0
3492 1 12.114804388124988 6.44770426867363 35.37717372068111 0 0 0
3493 1 5.434109645696955 2.578927625552758 32.867334057812094 0 0 0
3494 1 7.798526517969178 0.9494389781971234 34.32566560197704 0 0 0
3495 1 1.1320759276787045 1.8891305721811948 32.00388982514057 0 0 0
3496 1 9.250519177210805 2.3944991464952925 31.184631156436602 0 0 0
3497 1 8.976115300016907 2.8678831060044105 35.59547589519495 0 0 0
3498 1 1.6699496935206875 8.447210461263968 25.79302333368493 0 0 0
3499 1 11.50657100979395 3.7065918596143246 31.86079316281193 0 0 0
3500 1 11.934463675970314 0.5793381235390878 25.809258045262197 0 0 0
3501 1 7.701398725113703 2.485768677542442 25.328655256680847 0 0 0
3502 1 8.96865638241778 9.721416706231121 32.484383880006106 0 0 0
3503 1 2.3805417095507293 10.986971640346704 32.14369714812575 0 0 0
3504 1 7.689856208747267 11.168593966256449 29.290626853366845 0 0 0
3505 1 6.247453188126035 9.369119449549503 32.88995622105854 0 0 0
3506 1 7.926524186325429 11.516258260482397 35.88324155788037 0 0 0
3507 1 5.446143109265345 0.9106199163161759 30.759172671790356 0 0 0
3508 1 1.394605419843168 11.117506722849534 25.963569789410542 0 0 0
3509 1 4.7369492073279496 10.801289193161683 31.048168326664033 0 0 0
3510 1 10.844641700990959 6.067312159250517 25.3291280227981 0 0 0
3511 1 1.210986076581172 11.4466226870223 35.33551619916418 0 0 0
3512 1 5.555774616527996 2.1752754460821135 28.34869403383492 0 0 0
3513 1 8.602890604629705 7.573326686013277 36.521360781206404 0 0 0