LAMMPS data file via write_data, version 24 Dec 2020, timestep = 1000

5184 atoms
2 atom types

0 37.3341 xlo xhi
0 37.3341 ylo yhi
0 37.3341 zlo zhi
0 0 0 xy xz yz

Masses

1 15.9994
2 1.00794

Atoms # atomic

1 1 12.659327794242447 2.7233892514462594 2.722038958495071 0 0 0
2 1 5.363102109461933 5.525191200217866 2.4779202215978455 0 0 0
3 1 12.026201920981272 7.455731269470301 2.4249357215341187 0 0 0
4 1 2.878848030611931 4.329063134546156 4.3377126917091875 0 0 0
5 1 4.039099883163856 11.979643719865125 11.73737084397416 0 0 0
6 1 7.205646644046831 0.3637872130323876 2.2473736714551364 0 0 0
7 1 5.613595039042654 10.151843914812291 10.424628079790882 0 0 0
8 1 5.723655991835357 10.632451496218478 1.3880751784586243 0 0 0
9 1 9.449314663074423 11.87204140363257 0.9402065287338094 0 0 0
10 1 11.889738945237138 0.43935611284431875 9.025620726458849 0 0 0
11 1 5.464777392363471 7.586836260466853 11.306813861061425 0 0 0
12 1 3.8863271422431973 3.2981427935508982 1.4852970950006286 0 0 0
13 1 12.026369500475207 10.343979311184002 4.7997076279506485 0 0 0
14 1 3.939995369049376 7.8223391041098305 2.689360276938824 0 0 0
15 1 9.496307322592925 9.722666239791144 10.051396254967619 0 0 0
16 1 11.383800006702419 5.474196137843511 5.3730252492540025 0 0 0
17 1 1.257619845539993 3.3136780690125187 0.19849687584452377 0 0 0
18 1 1.4251769374970542 6.490837522809226 4.736781492617303 0 0 0
19 1 10.072066022963265 9.939622455937155 2.9690533944979594 0 0 0
20 1 8.381975181529029 5.488547817043651 10.227598526236985 0 0 0
21 1 9.003356179102296 4.705378663401193 1.9371908584223205 0 0 0
22 1 2.9166629791861807 3.1054161486535707 8.560773914899972 0 0 0
23 1 4.923148475785317 6.959032097517826 7.415797414700965 0 0 0
24 1 4.219467623878034 10.355252324874037 3.552391974303296 0 0 0
25 1 5.504679050967709 4.346130082362862 4.744077542545345 0 0 0
26 1 12.078604649045886 2.304386438545815 11.109546234784426 0 0 0
27 1 7.664918086691824 9.069648506498359 3.5047795351216084 0 0 0
28 1 5.728370058553373 5.441928763796151 9.642937490378037 0 0 0
29 1 2.1444544148956703 7.201404602446355 7.343456826847136 0 0 0
30 1 10.180733625647703 7.48692953134192 6.840237203636506 0 0 0
31 1 7.497474597009642 3.857733461070788 6.6215841541505265 0 0 0
32 1 5.289447962174795 2.4576518194970944 12.012755096233576 0 0 0
33 1 1.950488332780222 11.712260834656766 3.6892881044581163 0 0 0
34 1 2.04865309844677 5.653053205702944 9.42533186952715 0 0 0
35 1 6.935507882708476 8.47198936349169 0.9448964969213114 0 0 0
36 1 12.325720819971371 6.609212829911437 10.470363307524794 0 0 0
37 1 5.570081231896419 2.4086323217215724 8.032099404561743 0 0 0
38 1 7.962928281786925 0.980573407083328 9.147467952584394 0 0 0
39 1 0.9591332152519275 2.0452800091197147 7.081516682142228 0 0 0
40 1 9.43406825074715 2.1926801834600536 5.96691939882943 0 0 0
41 1 9.105410490784468 2.9395397610642733 10.89276540731519 0 0 0
42 1 1.868124904739989 8.358398680504605 1.223639093506776 0 0 0
43 1 11.302265756844346 3.6819457166156937 7.248031284118488 0 0 0
44 1 11.846472077252903 0.7401956485925857 0.896305258201487 0 0 0
45 1 7.818003972447694 2.65446326313729 0.5913517287681019 0 0 0
46 1 8.907504691495955 9.773490443316787 7.528054843529969 0 0 0
47 1 2.101162662608185 11.01290684121912 7.53398737843123 0 0 0
48 1 7.668066763945046 11.51782460023947 4.7261475795937375 0 0 0
49 1 6.247641598607114 9.287104847785566 7.759724784966418 0 0 0
50 1 7.896790035006851 11.39087051717199 11.276130221265591 0 0 0
51 1 5.590894098452168 0.7727607680550311 5.997549902462686 0 0 0
52 1 1.6101955784665423 11.144576996479767 0.9484546677022516 0 0 0
53 1 4.6453090140647735 10.898079765182423 6.152943915339243 0 0 0
54 1 10.656960367582197 6.3427280642447865 0.4907985474580187 0 0 0
55 1 1.2211921435740218 11.337466141473808 10.144252764034 0 0 0
56 1 5.696414147265494 1.9575980899309202 3.725044740560246 0 0 0
57 1 8.719692545059294 7.789950662990085 11.569504310630633 0 0 0
58 1 10.541909325347943 5.6585094117406545 8.660770482881723 0 0 0
59 1 2.8720313012132395 6.972271524906109 11.693904266527026 0 0 0
60 1 36.98398160078959 9.21626158082715 10.291724684812067 -1 0 0
61 1 9.567607900715222 12.389503986116916 7.597610789624801 0 0 0
62 1 1.5649351903672255 1.563187942400375 4.570537554740544 0 0 0
63 1 10.426263099717676 3.628927677471926 3.7353020715895133 0 0 0
64 1 0.31303334580062114 9.100068210086485 7.7440325194796165 0 0 0
65 2 11.627026540385353 3.229152747251191 3.2516710396815895 0 0 0
66 2 5.550857600167098 5.3385306429708725 3.7592886046488307 0 0 0
67 2 37.33133835059577 7.287712636953697 3.2246870326630357 -1 0 0
68 2 4.161846841604087 4.350751371441395 4.790538370232711 0 0 0
69 2 3.108128318754457 11.830401299829127 11.529899614378033 0 0 0
70 2 6.78622520676036 11.838867321667593 1.8475288603545874 0 0 0
71 2 5.669072630683981 9.203593932029726 10.905310330418475 0 0 0
72 2 6.5082660700847015 9.670623417213044 1.1384636706145608 0 0 0
73 2 8.917288639007644 11.69041385388481 0.020625799277277694 0 0 0
74 2 0.2089678079895434 1.3423904956832637 8.011917514701343 0 0 0
75 2 5.589662100537419 6.93181230537589 10.834981362065152 0 0 0
76 2 4.330281789538063 4.437342376745575 1.8763796196100013 0 0 0
77 2 11.202213624618878 10.356436008320642 4.343642717140015 0 0 0
78 2 2.5669321578784654 7.690179503076652 2.299364124252536 0 0 0
79 2 8.881719884511009 10.6115156148829 10.828859047615271 0 0 0
80 2 11.348543031751824 4.456119432160928 6.240927094853056 0 0 0
81 2 1.1200208358015586 2.9074484625629817 12.021300668059984 0 0 0
82 2 0.5755276545672698 6.254018701901965 5.04719825403592 0 0 0
83 2 9.328322340597019 9.536606699737867 3.462270630509479 0 0 0
84 2 9.107958485111155 5.2762108280800835 9.445872317469458 0 0 0
85 2 8.374566993754907 4.068717243128571 1.514072524473623 0 0 0
86 2 3.849222709409443 2.997903704866357 8.403766304424112 0 0 0
87 2 5.23945833917009 6.121605970690475 8.446223109636165 0 0 0
88 2 5.069997604020933 10.686392787748696 2.7531648452561184 0 0 0
89 2 6.557268626118143 4.034134896296779 5.571817219334745 0 0 0
90 2 12.025763410453422 1.3356162633826776 12.126948837994643 0 0 0
91 2 7.203785084161844 8.709401617704534 2.308702249728006 0 0 0
92 2 5.3650529850116415 4.640876159653695 10.008771689474223 0 0 0
93 2 3.25517190553678 7.37613528885342 7.4158870535997625 0 0 0
94 2 10.910372975397525 8.092676239229368 7.0831581830471215 0 0 0
95 2 8.603822620376228 3.1010640435333316 6.20866463326451 0 0 0
96 2 4.434592338481142 3.095806175943238 12.877342172719958 0 0 0
97 2 1.2357938834748532 11.457281427916186 4.262752594640014 0 0 0
98 2 1.0538320573393758 5.876743199084932 9.639948226152283 0 0 0
99 2 7.891240698184238 8.268790367097633 0.17874052730376377 0 0 0
100 2 12.048125450732455 6.274141119471274 11.351964424169049 0 0 0
101 2 5.499947756124056 1.497411698018204 7.203459815017662 0 0 0
102 2 8.394995314141784 1.6396187543268657 9.788366680802364 0 0 0
103 2 1.8391087013414316 2.1934017459805295 7.625355973625047 0 0 0
104 2 10.101161200780869 2.9202073153330974 6.4849417256462845 0 0 0
105 2 9.02048335570876 3.8304425328412077 10.637194605300131 0 0 0
106 2 0.7403885943303274 8.181656976986151 1.8726988370239979 0 0 0
107 2 11.264171071348233 4.507303318334139 7.741520185955856 0 0 0
108 2 10.71908265618854 12.30412685355643 1.0465918265433398 0 0 0
109 2 6.426691791064536 2.3895695490315676 12.634357941923202 0 0 0
110 2 9.421779581690325 10.748019972218364 7.531900944768128 0 0 0
111 2 1.622881495547728 11.83443575880165 7.396994954187216 0 0 0
112 2 7.16309574320686 12.044528820900545 5.422484405868679 0 0 0
113 2 5.94725555698133 8.369448086007045 7.59514563779057 0 0 0
114 2 7.861920860992305 12.109845161227112 10.519308656544263 0 0 0
115 2 5.178110501560085 37.1992740946515 5.94585822951649 0 -1 0
116 2 0.9094916514574728 11.353669714721837 0.3024153133254655 0 0 0
117 2 4.685208753310915 10.361066256282012 4.781184693051923 0 0 0
118 2 11.223898699846716 6.7424030945374005 1.147986556702171 0 0 0
119 2 2.005476909110894 11.07562512746215 9.616582769589204 0 0 0
120 2 4.682412889551576 1.9892762652603053 3.006629023251363 0 0 0
121 2 9.196359202013177 8.777813051414377 10.535123701391797 0 0 0
122 2 11.15394378961751 6.096921723394948 9.310495899156686 0 0 0
123 2 2.904419506370177 6.638269353813118 10.803671705736816 0 0 0
124 2 0.03364594273373137 9.170367297785901 8.937421398228446 0 0 0
125 2 8.839832695899029 13.266351412609662 8.551281495926405 0 0 0
126 2 1.9706791007306002 0.6755226162806318 4.190280769798801 0 0 0
127 2 10.78051480191341 4.190923308016503 4.56564985682885 0 0 0
128 2 1.3618152713403386 8.12239082736958 7.589152405876597 0 0 0
129 2 12.974982003803035 2.8702773205862835 1.9146297782638653 0 0 0
130 2 6.23783889977918 5.851504909322751 2.4090577789772105 0 0 0
131 2 11.358939552872393 8.31814250534458 2.7033760101235647 0 0 0
132 2 2.322985034760556 3.605786425933842 4.68198026087564 0 0 0
133 2 4.524236751753229 11.30990509693474 11.177820045090293 0 0 0
134 2 7.534142297335267 12.398861997106223 3.5216357370609197 0 0 0
135 2 6.097422770532534 9.694843164410303 9.075222199589795 0 0 0
136 2 5.162901514960684 11.114769814636503 0.9049209265901043 0 0 0
137 2 8.527915464549565 12.48020204697034 1.6013872695325575 0 0 0
138 2 11.740557008106181 1.2995804312381478 9.674567623747105 0 0 0
139 2 4.088795739706385 7.413147128487972 11.354358014440962 0 0 0
140 2 2.909316652119099 3.4221661826014715 1.3737807646006444 0 0 0
141 2 12.057788406196442 9.893147527222187 5.728784278258247 0 0 0
142 2 4.383574739374102 7.0050486546271244 2.7721009758423847 0 0 0
143 2 10.750024978124873 9.586924480124209 10.123359907253276 0 0 0
144 2 10.825240763989768 6.254277924199996 5.816504728502895 0 0 0
145 2 1.671196253027132 4.129775453289614 37.24289233273232 0 0 -1
146 2 2.1206041335371038 5.446288341045931 4.40128922066123 0 0 0
147 2 9.643066896055824 10.331831600297766 2.261965714040441 0 0 0
148 2 8.622270101450505 6.601108913683194 10.816425272633214 0 0 0
149 2 9.509503813880668 4.280640875893756 2.541362945604986 0 0 0
150 2 2.78639695930592 4.126442918393565 8.673020087293715 0 0 0
151 2 4.871564889388905 6.33088158509028 6.7166192946953025 0 0 0
152 2 4.089273787742948 9.066998204572032 3.2948858457626446 0 0 0
153 2 5.730313640008854 3.457852950421284 4.275403454438118 0 0 0
154 2 11.359903161869722 2.7997963737941856 11.150637596988453 0 0 0
155 2 7.803259058280181 8.469766827185682 4.129528795285647 0 0 0
156 2 7.074454186748686 5.329973133159553 9.927944366921409 0 0 0
157 2 1.7735231363008066 6.921605059667586 5.989295445746895 0 0 0
158 2 9.460514483658002 8.576946676756393 7.126131855474836 0 0 0
159 2 7.720771707203611 4.692146103045237 6.958036691577132 0 0 0
160 2 4.876713511337767 1.6009740308864564 11.66705238271508 0 0 0
161 2 3.180700002398093 11.112803405636608 3.41153149031129 0 0 0
162 2 2.193762502511719 6.338961372975913 8.38551697267866 0 0 0
163 2 5.975016593223872 7.749399293038962 0.1795519867408645 0 0 0
164 2 12.094863161056072 7.643409564313144 10.428292522255381 0 0 0
165 2 6.2694681142142485 2.9756315995852844 7.525588795117587 0 0 0
166 2 7.092516332133512 1.2287222869879781 8.993779012067684 0 0 0
167 2 1.3267063451203214 1.5707647260787563 5.833389021933103 0 0 0
168 2 9.519356357954678 0.9691075333561306 6.5238268516772635 0 0 0
169 2 8.513260574381915 2.5155684430698946 12.053328668217086 0 0 0
170 2 1.9250986077542342 9.344898495879596 1.0763616357908603 0 0 0
171 2 12.29383172224893 2.925787939408975 7.433838536673854 0 0 0
172 2 12.339805169687974 1.7033181474626233 1.7683841488613474 0 0 0
173 2 8.101910925450621 1.7562815905242315 1.1516170400985244 0 0 0
174 2 9.171433942455788 9.658657555114864 8.794383204945582 0 0 0
175 2 3.294570722531269 10.904122010844048 6.757785755074205 0 0 0
176 2 7.173202115103107 10.445249188761872 4.489068323695588 0 0 0
177 2 7.247101143652755 9.296283431678692 7.736270946086733 0 0 0
178 2 6.728621336816341 10.707577469046155 11.143273683606612 0 0 0
179 2 5.5912224381728945 1.4593767841999272 5.2161163594532916 0 0 0
180 2 1.4425406223053765 11.679360751367643 1.7331632861294004 0 0 0
181 2 5.353051701683889 10.472961418667253 6.734584464644643 0 0 0
182 2 9.762274624564128 5.692738202157421 1.3135998950640544 0 0 0
183 2 0.3421993454576785 12.206092886478594 9.56294687839467 0 0 0
184 2 6.5727565820480764 1.2743756740895258 3.0184756187209683 0 0 0
185 2 9.711840288690395 7.109599852733651 37.30009063183093 0 0 -1
186 2 10.433460395974937 6.54142115497106 7.677506344067571 0 0 0
187 2 2.0441523241123085 7.930836253544809 12.411175791219977 0 0 0
188 2 0.49512793573175207 10.109938032606768 10.279969292678107 0 0 0
189 2 10.390430774290929 12.484484818127717 8.075183295986237 0 0 0
190 2 0.8394827910618337 2.1307660561189543 3.587906601179727 0 0 0
191 2 9.662610553115933 2.7927913756406038 4.573375923432368 0 0 0
192 2 0.9440414753561021 9.746148581962224 7.738927056378979 0 0 0
1729 1 12.4775597924947 2.6790112470678378 14.700457646539908 0 0 0
1730 1 5.717044218523066 5.542613217195392 15.140449335010352 0 0 0
1731 1 11.901199663547427 7.68874920060821 14.89279398185597 0 0 0
1732 1 2.637849926463667 4.430234842418374 16.699580642880953 0 0 0
1733 1 4.277169572746042 11.777551020788128 24.345752485571023 0 0 0
1734 1 7.644386226055644 0.17338840155249846 14.553341987788773 0 0 0
1735 1 5.6252601234264015 10.011210238369813 23.007453266486458 0 0 0
1736 1 5.65653079503285 10.891090182821422 13.780915290233285 0 0 0
1737 1 9.553370629839172 11.800934176771996 13.31776433666359 0 0 0
1738 1 12.1344447835119 0.4692552295528984 21.146753082114277 0 0 0
1739 1 5.327755236253239 7.561994686417359 24.107643406057974 0 0 0
1740 1 4.529504314426204 3.4163683441302775 14.247971415060452 0 0 0
1741 1 11.815010394477808 11.148512700014368 17.29206596277206 0 0 0
1742 1 3.656455936175792 7.842352148662755 15.565491260748901 0 0 0
1743 1 9.459605011268588 9.643817643759558 22.62386874844546 0 0 0
1744 1 11.128686608581392 5.389497247774109 17.66783395637084 0 0 0
1745 1 1.3751528121997234 3.556381440290438 12.728261764573746 0 0 0
1746 1 0.9313409828114632 6.634835515522999 16.974763367069055 0 0 0
1747 1 10.218750482480718 9.748596312616284 15.226237536253816 0 0 0
1748 1 8.14086269198796 5.432637480300879 22.70966877525184 0 0 0
1749 1 8.086836289780988 4.90044130962225 14.25626953345997 0 0 0
1750 1 2.7101880892611456 2.625304707092461 21.12237428137819 0 0 0
1751 1 4.865150205618634 6.824952755112289 19.51494331071064 0 0 0
1752 1 4.279825205213808 10.413241904235422 15.863561583074482 0 0 0
1753 1 5.612001945058319 4.615985378412447 17.5858129571034 0 0 0
1754 1 11.610460222736437 2.140293297530367 23.653148420015963 0 0 0
1755 1 7.934575923060441 8.724509369036978 16.012599534048267 0 0 0
1756 1 5.692087675496206 5.391679855298238 21.621435988006667 0 0 0
1757 1 2.19678290455222 6.77413800326547 19.247030500153652 0 0 0
1758 1 10.421979470613003 7.583782428813521 19.130735257357617 0 0 0
1759 1 7.594165396253454 4.013485043981937 19.166196585177005 0 0 0
1760 1 5.4418068904513515 1.758426756759053 24.226520175313947 0 0 0
1761 1 1.9887327645134627 11.735274040263562 15.982681804965901 0 0 0
1762 1 2.1245825822096562 5.270101490888373 21.427657933687332 0 0 0
1763 1 6.909630713327551 8.43463727947489 13.229252919604715 0 0 0
1764 1 12.215190108880286 6.399580643334182 22.78916883912758 0 0 0
1765 1 5.7898627487130065 2.27155430350137 20.58569554441773 0 0 0
1766 1 7.964828329791017 0.9134263853509419 21.74055320760673 0 0 0
1767 1 0.8974232527764203 1.8517404262726536 19.49976496976774 0 0 0
1768 1 9.516370904065619 2.269487938597638 18.479776670436767 0 0 0
1769 1 9.17477288150573 3.021493826532038 23.245656911814724 0 0 0
1770 1 1.5805689906082978 8.511996802929549 13.576369221892405 0 0 0
1771 1 11.450539745316446 3.7121490335868184 19.667373430949187 0 0 0
1772 1 11.925191273973809 0.5020165217702245 13.325632222607371 0 0 0
1773 1 7.7714895849891805 2.540911776748179 13.147164065202958 0 0 0
1774 1 9.002464918486528 9.708180977236413 19.838458153862764 0 0 0
1775 1 2.4422257859919343 11.317775331917026 20.085300709464292 0 0 0
1776 1 7.661046988838076 11.750330389639926 17.09644055885199 0 0 0
1777 1 6.343205447802797 9.681635331587449 20.291546611161582 0 0 0
1778 1 7.939204728975722 11.593118060988154 23.74784978202925 0 0 0
1779 1 5.794439053428757 0.82662080407626 18.397476135270566 0 0 0
1780 1 1.2359654005211478 11.09572610160634 13.510634974942699 0 0 0
1781 1 4.426483850712881 10.703968810384122 18.44010349236429 0 0 0
1782 1 10.824525279309626 6.302427579980874 12.835331217153533 0 0 0
1783 1 1.375617415249281 11.340947567831682 22.625465484444945 0 0 0
1784 1 5.772264198473761 1.9505415678748628 15.886066720703603 0 0 0
1785 1 8.922063675960993 7.584406333569878 24.19136780857576 0 0 0
1786 1 10.15789707706969 5.681036531120133 21.113556823372573 0 0 0
1787 1 2.747608922007748 7.1015967985242385 23.842334165927838 0 0 0
1788 1 37.106733354184186 9.185428557012232 22.29992129525643 -1 0 0
1789 1 9.756755110452497 12.393890312509493 19.957399632851033 0 0 0
1790 1 1.6280988008484276 1.692637068574494 16.964990818616343 0 0 0
1791 1 10.276781473213944 3.5820033123962767 15.97251706576893 0 0 0
1792 1 0.6170256436402908 8.886977752253953 19.684425462970307 0 0 0
1793 2 11.263487082836564 3.231502958296958 15.012503336643327 0 0 0
1794 2 5.754354650398469 5.332482173606978 16.008502648790344 0 0 0
1795 2 37.240079083065574 7.408666410477248 15.60199802592675 -1 0 0
1796 2 3.6076467664490224 4.782295282075711 16.922812390019775 0 0 0
1797 2 3.368163240519068 11.767781002254324 24.302485686072423 0 0 0
1798 2 6.709845667284641 12.079468355704856 14.275226876349222 0 0 0
1799 2 5.472796805895607 9.073912543390803 23.294806623489258 0 0 0
1800 2 6.522214994362798 9.675643888666709 13.464305337441916 0 0 0
1801 2 8.82454053509636 11.5541586301419 12.683835043858279 0 0 0
1802 2 36.908784552298016 0.8712562974237043 20.785586055622122 -1 0 0
1803 2 5.9340666783980485 6.810051051643455 23.80151787327356 0 0 0
1804 2 5.189356367749138 4.549408811444948 14.424956937416846 0 0 0
1805 2 11.139835836925178 10.477162331980644 16.52480809075781 0 0 0
1806 2 2.848689545686453 7.986667839429696 14.478359929245727 0 0 0
1807 2 8.770837214573254 10.713583555794848 23.268544608111036 0 0 0
1808 2 11.290032672362596 4.823091817815398 18.338848382309415 0 0 0
1809 2 0.557984719771816 2.7837695156057642 24.4118713234619 0 0 0
1810 2 0.05801382713735466 6.347081075316091 17.40465214762306 0 0 0
1811 2 9.344163640205348 9.480331235597172 15.789446856303453 0 0 0
1812 2 9.147139871030832 5.799247739530486 21.984700315913777 0 0 0
1813 2 7.8546695684718815 3.982685983071407 13.934797604365233 0 0 0
1814 2 3.698168314863705 2.5821768373360525 21.05655619847183 0 0 0
1815 2 5.331038364249008 5.899470113036456 20.50350352687 0 0 0
1816 2 4.698858707390093 10.99459491916196 14.646007850830966 0 0 0
1817 2 6.488157008705088 4.5070933496965155 18.472633270807552 0 0 0
1818 2 11.530321363394943 1.475680096353432 24.349216642843366 0 0 0
1819 2 7.6593391452621296 8.358447523005347 15.097093664046051 0 0 0
1820 2 5.417892823601889 4.595217627732445 21.859955365386764 0 0 0
1821 2 3.398064466420013 7.196535830519348 19.22106408863716 0 0 0
1822 2 11.300898104741687 8.09249924118251 19.343193706815605 0 0 0
1823 2 8.432797770401706 2.939284687977355 18.70142542870683 0 0 0
1824 2 4.754084800956256 2.075840852712834 24.638769377904072 0 0 0
1825 2 1.3292816123197309 11.275954142567292 16.60351461932326 0 0 0
1826 2 1.3479715342243066 5.298804859996168 21.932571956698023 0 0 0
1827 2 7.7199661978004315 8.397419482002167 12.650334514799775 0 0 0
1828 2 11.651583202430468 6.035853489394667 23.625051478419287 0 0 0
1829 2 5.840150729495103 1.4667127824045332 19.584865294914426 0 0 0
1830 2 8.279170364958658 1.766138357623686 22.137247206652614 0 0 0
1831 2 1.6577160112187488 2.0934810648259097 20.099957904643222 0 0 0
1832 2 10.615849476383088 2.8563981078748872 19.220001384952905 0 0 0
1833 2 8.591568783320303 3.65423811467201 22.87827948298405 0 0 0
1834 2 0.7693380555520472 8.17341295840202 14.036170588562301 0 0 0
1835 2 10.944119193766925 4.147087068902891 20.40473576370339 0 0 0
1836 2 10.951880740301386 12.81234001677499 13.162355281429711 0 0 0
1837 2 6.654341418095857 1.8232038241685953 24.689086327537684 0 0 0
1838 2 9.233223236984696 10.641873680503672 19.541334745446687 0 0 0
1839 2 2.201801358205338 12.261754154605452 19.64058397821122 0 0 0
1840 2 6.827650688894047 12.364948532269338 18.07345711435298 0 0 0
1841 2 6.041875425807369 8.862131422000578 20.01995003248669 0 0 0
1842 2 7.730917994738652 12.489743835159562 23.09663146435554 0 0 0
1843 2 4.774992617224751 37.05174650691654 18.427108729954846 0 -1 0
1844 2 0.5777056578631489 11.789009799666793 13.410605439192603 0 0 0
1845 2 4.678729581246248 10.579153195537675 17.091132365866414 0 0 0
1846 2 11.26568553801717 6.607358523062941 13.59658538015878 0 0 0
1847 2 1.855208477729744 11.268181633275656 21.82719769732587 0 0 0
1848 2 5.112795343335469 2.5095648862157085 15.2454573531595 0 0 0
1849 2 9.094422000660215 8.303558895134218 23.422530227476 0 0 0
1850 2 11.209925697581753 5.934705466666346 21.930686608596833 0 0 0
1851 2 2.676546713925173 7.103679715423067 22.909684960748958 0 0 0
1852 2 37.142876870661176 8.908458706128323 21.376434831674167 -1 0 0
1853 2 9.069556618812975 12.553699574846108 20.714693742530613 0 0 0
1854 2 1.6852265757266407 0.37803226093810016 16.657701057810485 0 0 0
1855 2 10.362787838407431 4.525051433771189 16.94296316063043 0 0 0
1856 2 1.5908086089055786 7.80271490576312 19.71090410947321 0 0 0
1857 2 12.587292680402268 3.2141014298060444 14.022374668253194 0 0 0
1858 2 6.573051631682343 5.812254875067076 14.7623951692665 0 0 0
1859 2 11.376788560336902 8.403986682904167 15.189344872318221 0 0 0
1860 2 2.130854426198106 3.267158551641833 16.859069711197574 0 0 0
1861 2 4.632165412856671 11.347697778530826 23.54867329210704 0 0 0
1862 2 7.187126052131431 12.192495131008357 15.799436488269691 0 0 0
1863 2 6.05326229866605 9.983041700595367 22.16779213487348 0 0 0
1864 2 5.138388880951593 11.243662678260563 13.108539286770657 0 0 0
1865 2 9.033923864959991 11.87116542745102 14.152320759912664 0 0 0
1866 2 11.92627401698566 1.1273461485721057 21.92309525613238 0 0 0
1867 2 4.013738081894759 7.192524916390595 23.581114443999983 0 0 0
1868 2 3.5948457260527675 3.5311743266221045 14.47673845155944 0 0 0
1869 2 11.896610113883428 10.553791793527795 17.955050516172086 0 0 0
1870 2 4.35436727912143 7.070534768569888 15.267002312810178 0 0 0
1871 2 10.345217631068806 9.660678104604923 22.583317127475794 0 0 0
1872 2 10.574946151402322 6.113832880367547 17.959301056409895 0 0 0
1873 2 1.7035925976409738 4.414272892725806 12.359870466059585 0 0 0
1874 2 1.2962653033106752 5.730052645618699 16.666306867988645 0 0 0
1875 2 10.1688369118401 10.356574920547251 14.363561891923412 0 0 0
1876 2 8.492606657166686 5.999101584162675 23.4250773104286 0 0 0
1877 2 8.758959997935298 4.746743425294842 14.88326265521351 0 0 0
1878 2 2.3097780379427775 3.9229327835002885 21.30045417518642 0 0 0
1879 2 5.04028690341401 6.1560623207860345 18.801523270657455 0 0 0
1880 2 4.191521745816481 9.034510439738305 15.682210988239266 0 0 0
1881 2 5.530506905243077 3.6198819585782536 17.506198926178172 0 0 0
1882 2 10.515475459369457 2.7801613622780703 23.521002840072676 0 0 0
1883 2 7.803325690600534 8.219152215535555 16.83701039652423 0 0 0
1884 2 6.92434486890453 5.481644375832793 22.091963199815968 0 0 0
1885 2 1.8282725990691235 6.6155895441201915 18.2215767332519 0 0 0
1886 2 9.66102615284784 8.6400267299028 19.16208030286554 0 0 0
1887 2 8.06887394015215 4.786787430179809 19.4290228379968 0 0 0
1888 2 4.724697452284563 0.5318711455262939 24.265905369351763 0 0 0
1889 2 3.055304528360283 11.049918070134282 16.093701108291764 0 0 0
1890 2 1.9752038038758035 5.703201065336327 20.251296761650664 0 0 0
1891 2 6.1993979593514785 7.6753453662723965 12.388081790358234 0 0 0
1892 2 12.218466298874437 7.629850371541031 22.502306176417807 0 0 0
1893 2 6.405205018773062 2.7225721546483377 19.8777722381736 0 0 0
1894 2 6.84513738220574 1.6579792525376482 21.39579734855498 0 0 0
1895 2 1.0632796676531524 1.625149024611904 18.223375358840368 0 0 0
1896 2 9.362164780316231 1.2731231722599228 18.990443675023503 0 0 0
1897 2 8.635362374778754 2.933734906551965 24.384016466172636 0 0 0
1898 2 1.412544799792264 9.771434285689836 13.483531818381106 0 0 0
1899 2 12.594488491779957 2.993174317956482 19.6153596004874 0 0 0
1900 2 12.251143573169735 1.2806456171501899 14.287274827670814 0 0 0
1901 2 7.6819696191690285 1.6084913494370325 13.640823753308181 0 0 0
1902 2 9.294105145031518 9.681463062613924 21.054372014810014 0 0 0
1903 2 3.181605063981738 10.896026094828802 19.65595049918926 0 0 0
1904 2 7.322791789317831 10.6926644494285 17.222191530030106 0 0 0
1905 2 7.263099365683168 9.662650242058715 19.98227471521267 0 0 0
1906 2 7.12151966838226 11.160398320397316 23.94725674341605 0 0 0
1907 2 5.652981215816927 1.2571520813752313 17.46624780276721 0 0 0
1908 2 1.5093745757593897 11.494028296253944 14.71087818845746 0 0 0
1909 2 5.199014739848292 10.28626926404278 18.922992420888274 0 0 0
1910 2 10.273903556663027 5.7337916079573015 13.564337917726393 0 0 0
1911 2 0.4823016904683276 12.091360361720788 22.104560152159227 0 0 0
1912 2 6.334255449997194 1.3431118559543693 15.52116416460379 0 0 0
1913 2 9.286403600671715 7.355589361683867 12.00293763750244 0 0 0
1914 2 10.125952501021665 6.502235135877632 20.646677527216834 0 0 0
1915 2 2.07629251372246 7.7375063146543175 24.76266029916071 0 0 0
1916 2 0.7493463534657757 10.237872710808787 22.648586798388433 0 0 0
1917 2 10.668529247699626 12.65416397932733 20.883903747095623 0 0 0
1918 2 1.063394272681362 1.781483320961879 16.14654731880522 0 0 0
1919 2 9.841904677849474 3.1041789591859734 16.716583033069718 0 0 0
1920 2 1.0213160152331862 9.65662003931273 19.94381392314414 0 0 0
3457 1 12.582932217696477 2.6255203607862794 27.28815397134541 0 0 0
3458 1 5.737990173558911 5.801562893210756 27.40063439156669 0 0 0
3459 1 11.990133948926433 7.608576346278898 27.399497887046966 0 0 0
3460 1 2.611340467276396 4.333455510571174 29.5817876134279 0 0 0
3461 1 3.879926931298754 11.925201080095425 37.02448639895295 0 0 0
3462 1 7.149012192566346 37.078920742105005 27.099797348521935 0 -1 0
3463 1 5.822202295206002 10.119480500113145 35.49372481232858 0 0 0
3464 1 5.804035283253177 10.87490328819247 26.19701862224911 0 0 0
3465 1 9.182584120588746 12.004981547712328 26.25949236735956 0 0 0
3466 1 11.90198287535659 0.7978671186177708 33.8351130447771 0 0 0
3467 1 5.334845042340382 7.510380767270505 36.43326682364354 0 0 0
3468 1 3.843676407358072 3.275968842799513 26.294727629458258 0 0 0
3469 1 12.316925564567567 10.534401124847225 29.742656807166828 0 0 0
3470 1 3.9371681424370766 8.049739568208404 27.255149453331843 0 0 0
3471 1 9.531593946933176 9.658443144580433 35.10418644180069 0 0 0
3472 1 11.314269976392367 5.535877709302118 30.213308813716818 0 0 0
3473 1 0.9112888786026521 3.4012307265865656 25.04997279841044 0 0 0
3474 1 1.0075734760435917 6.336505737511328 29.29466020426088 0 0 0
3475 1 10.29580577547226 9.784442608095823 27.620152513136787 0 0 0
3476 1 8.07357110203137 5.452185722171151 35.14406234063672 0 0 0
3477 1 8.718977447716632 5.032995211173279 26.490978256734238 0 0 0
3478 1 2.8562869705113116 2.8540156798281036 33.76227470597704 0 0 0
3479 1 4.951789312707516 6.70936903931515 32.48482784012696 0 0 0
3480 1 4.3098389987845644 10.426182326846922 28.442511670903013 0 0 0
3481 1 5.484519365442115 4.504007644453544 29.889072111781104 0 0 0
3482 1 11.891669057187695 2.4426106398337684 36.2380696746687 0 0 0
3483 1 7.732453763850433 8.74493179660478 28.404223877253813 0 0 0
3484 1 5.480802667315114 5.487987239962181 34.71063075757854 0 0 0
3485 1 2.2565569026907912 6.972493636583784 31.793726624295303 0 0 0
3486 1 10.301772674202786 7.6693190600285295 31.660700343205615 0 0 0
3487 1 7.359863285468924 4.143512426197716 31.67048779280337 0 0 0
3488 1 5.290921618059352 2.82914359504803 36.79666388620594 0 0 0
3489 1 1.8481738559818461 11.602978694184802 28.58570840443325 0 0 0
3490 1 1.822820244831633 5.334982071887279 33.76332565815866 0 0 0
3491 1 7.069694132065921 8.62854856372399 25.83403242506001 0 0 0
3492 1 12.090538818355554 6.417631451738731 35.38994267019162 0 0 0
3493 1 5.3923899497444445 2.606840691340478 32.92025477026729 0 0 0
3494 1 7.796992241895136 0.997615515819091 34.22693980193012 0 0 0
3495 1 1.1956954618030025 1.8969384182064009 31.987739990835312 0 0 0
3496 1 9.23823922037787 2.3587020819630893 31.194553413771594 0 0 0
3497 1 9.033804649558578 2.916996379951406 35.54691775471952 0 0 0
3498 1 1.6079719993551795 8.462250825467196 25.875821985655666 0 0 0
3499 1 11.470256372458625 3.7567055332169272 31.8094359416354 0 0 0
3500 1 11.879139854880258 0.6200013320995741 25.780568878267022 0 0 0
3501 1 7.640356203329612 2.522151984067254 25.345900119011105 0 0 0
3502 1 8.96106067063802 9.718417842697644 32.51632931708193 0 0 0
3503 1 2.435448213534947 10.96079276343137 32.15785012814831 0 0 0
3504 1 7.625229895318439 11.182303968958989 29.235303362341014 0 0 0
3505 1 6.234299408073939 9.377473721295932 32.94425988506572 0 0 0
3506 1 7.905799811652512 11.530581305088907 35.91809444139136 0 0 0
3507 1 5.473592439299952 0.9515578228369478 30.719853631307384 0 0 0
3508 1 1.3913238859027923 11.134953235047883 26.036936084811135 0 0 0
3509 1 4.736916042384904 10.80940693511995 31.08616850910712 0 0 0
3510 1 10.823574690524508 6.06381591581916 25.284920408776532 0 0 0
3511 1 1.2439082348452397 11.405738582511356 35.33763043181227 0 0 0
3512 1 5.566109169863171 2.153677561591897 28.327612872738346 0 0 0
3513 1 8.599342411119835 7.555665415349156 36.55664576733516 0 0 0