LAMMPS data file via write_data, version 24 Dec 2020, timestep = 1000

5184 atoms
2 atom types

0 37.3341 xlo xhi
0 37.3341 ylo yhi
0 37.3341 zlo zhi
0 0 0 xy xz yz

Masses

1 15.9994
2 1.00794

Atoms # atomic

1 1 12.690259384337068 2.6359597722809314 2.67614620533957 0 0 0
2 1 5.36054090221553 5.487659791971791 2.5280268177927616 0 0 0
3 1 12.056673585196279 7.434316954464525 2.4473862140897547 0 0 0
4 1 2.8709480460946724 4.3672088414169385 4.4256192574532065 0 0 0
5 1 4.056616862325736 11.945551687704693 11.810888068528008 0 0 0
6 1 7.24585345716775 0.3791309303218184 2.204216224349105 0 0 0
7 1 5.6800802761226326 10.102157006669962 10.401122759760394 0 0 0
8 1 5.792176842135432 10.719635969106388 1.3842850869822354 0 0 0
9 1 9.480968333220432 11.840487077394547 0.9726217952633708 0 0 0
10 1 11.863923434927838 0.5151797417563596 8.997535553033215 0 0 0
11 1 5.524672412075247 7.5903909195293435 11.20545121600392 0 0 0
12 1 3.881149888057139 3.3390460761383816 1.5465492520342992 0 0 0
13 1 12.030379719248696 10.315840571835057 4.780928736613234 0 0 0
14 1 3.8928175228575004 7.785104352995345 2.68977686273655 0 0 0
15 1 9.451405868993138 9.667011960947477 10.092069019654442 0 0 0
16 1 11.347499343715697 5.492752793882843 5.377561653294885 0 0 0
17 1 1.2741990376798578 3.330174553044581 0.1945363560453819 0 0 0
18 1 1.419172258633693 6.612846302848213 4.7803252717280245 0 0 0
19 1 10.099422326488623 9.875886086012432 2.963876267381261 0 0 0
20 1 8.386775245459868 5.460020715037877 10.229437533376231 0 0 0
21 1 9.007121780826099 4.7247761191141056 1.9263012067941476 0 0 0
22 1 2.9159618543725974 3.131140984623672 8.48570290828629 0 0 0
23 1 4.920881082742385 7.042732089071875 7.341438385029343 0 0 0
24 1 4.260434539426775 10.351628621816754 3.5817449019418426 0 0 0
25 1 5.528014614744613 4.346822282907526 4.767768077862888 0 0 0
26 1 12.172036255230514 2.2658306362928076 11.149409428460187 0 0 0
27 1 7.65778305359378 9.037231275223691 3.558559760840801 0 0 0
28 1 5.774986304951605 5.426505313355622 9.535997435090247 0 0 0
29 1 2.133667883651319 7.201165957656406 7.404376891007645 0 0 0
30 1 10.18740011181315 7.5509096993011635 6.830908369158495 0 0 0
31 1 7.471345922346084 3.9636962063515284 6.596293964322581 0 0 0
32 1 5.357416074462636 2.5490731245905915 12.028394615718177 0 0 0
33 1 1.9343489574356063 11.729935269857114 3.7094927794745023 0 0 0
34 1 2.0918581992586622 5.627106789210053 9.413814996812352 0 0 0
35 1 6.953014607992658 8.552378756583112 0.9415818649400155 0 0 0
36 1 12.371985021170223 6.538709449443394 10.45818275619502 0 0 0
37 1 5.606855815747966 2.436678361621924 8.030066277657506 0 0 0
38 1 7.858543465096008 0.9107485774256794 9.230091481556636 0 0 0
39 1 1.038074953388118 2.094739793454604 7.0996526237271596 0 0 0
40 1 9.568112341151364 2.2066757659707505 5.965837852854042 0 0 0
41 1 9.07377750345542 2.9132192775074257 10.861497604277071 0 0 0
42 1 1.8794839454160581 8.43812984246149 1.2481257298583188 0 0 0
43 1 11.348586968591347 3.7701031277529857 7.239400456949666 0 0 0
44 1 11.847955230285157 0.7533319040248703 1.002629104222744 0 0 0
45 1 7.865142024527353 2.721076514956463 0.6138062211716806 0 0 0
46 1 8.863319889292962 9.716424193036062 7.539973363681013 0 0 0
47 1 2.0379542757773996 10.976139033247586 7.505095723283696 0 0 0
48 1 7.685542722102899 11.56564739164015 4.712939649432051 0 0 0
49 1 6.2600032458997035 9.333314327450358 7.800506044531839 0 0 0
50 1 7.885743318543314 11.341769569813023 11.242403811551345 0 0 0
51 1 5.574825561703897 0.8098347031075488 5.958716827618355 0 0 0
52 1 1.667065527293722 11.236104113590574 0.9840424729107676 0 0 0
53 1 4.698824725538914 10.932248694232616 6.085182072687898 0 0 0
54 1 10.708099220644158 6.313298515557505 0.5241096528190768 0 0 0
55 1 1.212344681234694 11.295495702174474 10.167396748148583 0 0 0
56 1 5.645004827937309 1.9299636326056926 3.6738963584843756 0 0 0
57 1 8.698871566173603 7.760664555936142 11.54015110431783 0 0 0
58 1 10.474149593752895 5.666988480260536 8.730912996747218 0 0 0
59 1 2.913452130507157 7.020879495604202 11.658191746134156 0 0 0
60 1 37.010619604841736 9.226945609241694 10.293050945881541 -1 0 0
61 1 9.529307115742832 12.401544146571599 7.514423231394382 0 0 0
62 1 1.5381530734742421 1.5626899933282348 4.591887904768543 0 0 0
63 1 10.447620147107703 3.6072167535310533 3.7148595057282887 0 0 0
64 1 0.2992595272553683 9.042114401799637 7.7964573586852906 0 0 0
65 2 11.558609669849675 3.260574241775222 3.195818510654278 0 0 0
66 2 5.466172508105385 5.186514776721719 3.753088142302705 0 0 0
67 2 37.251079243959616 7.413841546543343 3.1291376506332824 -1 0 0
68 2 4.140390837813897 4.062487695174953 4.997015994134114 0 0 0
69 2 3.1173622258223648 11.714803561999009 11.795238379471561 0 0 0
70 2 6.7692748320048 11.810836312544028 2.0841391670395524 0 0 0
71 2 5.6712521166061425 9.223626041215903 10.881499405740264 0 0 0
72 2 6.491110106420767 9.771465817499758 0.9021544107751619 0 0 0
73 2 8.895223176206075 11.597514432043765 0.12131330969833701 0 0 0
74 2 0.014559258817897054 1.1528698507658957 8.197934755628227 0 0 0
75 2 5.400732624726204 6.833780805344916 10.778036637525474 0 0 0
76 2 4.324168944482465 4.2385958142700115 1.980858324494014 0 0 0
77 2 11.006603179999614 10.244810162906159 4.470322109172889 0 0 0
78 2 2.8116939767277174 7.631767995164014 1.9737556165356724 0 0 0
79 2 8.755581854369549 10.478310315486135 10.887499658600664 0 0 0
80 2 11.443573986660816 4.492676935118001 6.2746365832811035 0 0 0
81 2 0.6870009339305115 3.0105705781048293 12.267210487715985 0 0 0
82 2 0.4400287463272331 6.141481483643006 4.954770731225952 0 0 0
83 2 9.152670792351067 9.745432520838413 3.1951993164040777 0 0 0
84 2 9.235230538576554 5.578606709812343 9.642228605943924 0 0 0
85 2 8.59449229825714 4.090968513557456 1.2978884967738185 0 0 0
86 2 3.8530512784715985 3.069305336326181 8.255467366187023 0 0 0
87 2 5.051081588077775 6.129507041394219 8.258815719968736 0 0 0
88 2 4.974768091059676 10.41798877320778 2.8622515531128454 0 0 0
89 2 6.345721608598259 4.234400014847596 5.855443220195836 0 0 0
90 2 12.082984550313062 1.2936177041002044 12.235306291746292 0 0 0
91 2 7.419153867470309 8.438001821379943 2.38743235212223 0 0 0
92 2 5.577744455042664 4.636685605992256 9.875116268164163 0 0 0
93 2 3.264724126040099 7.427771873204008 7.486351525046225 0 0 0
94 2 10.964555734071215 8.044295783658999 6.988733607212094 0 0 0
95 2 8.388502550897527 3.133457727971633 6.037246932287237 0 0 0
96 2 4.596100708887122 3.325707559890331 12.990674409325413 0 0 0
97 2 1.1970963016838614 11.441818398423491 4.27962864242336 0 0 0
98 2 1.1636097926087259 5.863372908839723 9.554838931788142 0 0 0
99 2 8.104497684913145 8.402981460137859 0.003262675409038178 0 0 0
100 2 11.890253061905904 6.195301022394553 11.371098979771244 0 0 0
101 2 5.616026261519913 1.920719294171359 7.171302108619739 0 0 0
102 2 8.417787229348757 2.165282497800774 10.005146934463722 0 0 0
103 2 1.9711482184885978 2.6702139137900613 7.617101468934334 0 0 0
104 2 10.008221580065523 2.723925254527004 6.688828119649776 0 0 0
105 2 8.895326949590757 3.8771919652955575 10.54886355604541 0 0 0
106 2 0.6784568267373133 8.409648869917117 1.8522123910929817 0 0 0
107 2 11.221337956088876 4.463362656602748 7.901465759997987 0 0 0
108 2 10.563998119956043 12.527239016917063 0.888938682598262 0 0 0
109 2 6.511795972744694 2.5489608956366223 12.748689485868576 0 0 0
110 2 9.328271717682977 10.605242800749455 7.536736676778489 0 0 0
111 2 1.7070686444008272 11.781514416900894 7.258165903677486 0 0 0
112 2 7.007594070137687 12.100935420407149 5.196828298881037 0 0 0
113 2 5.961866291880082 8.485404492994201 7.627788388245688 0 0 0
114 2 7.748360962668305 11.994201368031657 10.57465551945615 0 0 0
115 2 5.121973938645167 0.0043804582411286 5.791571904701234 0 0 0
116 2 0.9003180610390539 11.153217346836318 0.38016428624887694 0 0 0
117 2 4.728751995358036 10.4186302388233 5.013600026678993 0 0 0
118 2 11.143509440614134 6.746088927076306 1.3526635972875234 0 0 0
119 2 1.9100361792579037 11.124452610874746 9.392499864376376 0 0 0
120 2 4.823132399568734 2.0440653571980354 2.8925590801170826 0 0 0
121 2 8.941918957965793 8.56829497940685 10.527516362852612 0 0 0
122 2 10.963093302427994 6.0767606308065805 9.461374101250676 0 0 0
123 2 2.7627769413259435 6.744787617460164 10.80398365423449 0 0 0
124 2 37.03386664544234 9.074040064445425 8.98465596557237 -1 0 0
125 2 8.991462873322932 13.042811417986966 8.513407068677179 0 0 0
126 2 1.8906704938565897 0.6923812280902881 4.29263227665804 0 0 0
127 2 10.797998742853624 4.429128520232377 4.457791556553829 0 0 0
128 2 1.4194012233308708 8.435198494142487 7.649208027263498 0 0 0
129 2 12.97587316059986 3.0233350535039842 1.760147502915527 0 0 0
130 2 6.034678666618911 5.82791012813149 2.234192627850625 0 0 0
131 2 11.43819191981704 8.242086328379806 2.6655725565601123 0 0 0
132 2 2.335715434907774 3.639675906139108 4.693007080365862 0 0 0
133 2 4.557984055647731 11.14617903318147 11.184697993770653 0 0 0
134 2 7.599346028874137 12.114712803328986 3.5431108832952396 0 0 0
135 2 5.859771223541537 9.717543015744058 9.091751008883339 0 0 0
136 2 5.309393118434204 11.207465463994856 0.8074616778510275 0 0 0
137 2 8.443304717062965 12.452801930494498 1.5941301124244571 0 0 0
138 2 11.916619804103515 1.237623966389605 9.540160384194108 0 0 0
139 2 4.223508216702013 7.371815849004174 11.436502549347807 0 0 0
140 2 2.868895918581598 3.2008678246882343 1.7150920557796137 0 0 0
141 2 12.079672668505406 9.824170574443878 5.489950268531897 0 0 0
142 2 4.5430212969480745 7.056058616009337 2.7847839233983858 0 0 0
143 2 10.860565762632596 9.583234555811899 10.206291213559764 0 0 0
144 2 10.948722206201245 6.394859454651153 5.772985657664985 0 0 0
145 2 1.6631029493376002 4.090916726685363 37.11019713116298 0 0 -1
146 2 2.1981214929160773 5.34620762152248 4.295883948577284 0 0 0
147 2 9.862552902710625 10.369268151121794 2.133726880513364 0 0 0
148 2 8.479947552599489 6.629378149784178 10.738016715081498 0 0 0
149 2 9.666241581277134 4.330202557395421 2.7862314846579936 0 0 0
150 2 2.73928654513963 4.117730354028038 8.780479422099203 0 0 0
151 2 4.574038741233128 6.407856966298869 6.725690639710885 0 0 0
152 2 3.938377714262376 8.965163011906943 3.185615348369347 0 0 0
153 2 5.357232475511876 3.4080119964652695 4.377011432560973 0 0 0
154 2 11.345429154640179 2.9700443765899163 11.012905175152587 0 0 0
155 2 7.8192661949630065 8.327789674185821 4.01324336604029 0 0 0
156 2 7.0060504460263 5.312041609872344 9.811383156205896 0 0 0
157 2 1.7393603171620933 6.8120883000973675 6.060870136600136 0 0 0
158 2 9.482340598011678 8.693457645126111 6.881834369211652 0 0 0
159 2 7.711843538314548 4.754108871845396 7.037541578050433 0 0 0
160 2 4.945513014356057 1.7467542785342025 11.771326488277237 0 0 0
161 2 3.1746438382092 11.275247427605468 3.611178055993205 0 0 0
162 2 2.0246516113902726 6.264504230280837 8.300121828476888 0 0 0
163 2 6.147986344670218 7.781537787683606 0.10708884669207673 0 0 0
164 2 12.494338933399114 7.482798837850806 10.4630567371222 0 0 0
165 2 6.341888281551702 2.90690622737317 7.737802143665595 0 0 0
166 2 7.126859943703692 1.4999071453532529 9.031207675630425 0 0 0
167 2 1.053600881888826 1.7155054767172677 5.862046497160156 0 0 0
168 2 9.614978795472664 0.9652213174208911 6.442503255961645 0 0 0
169 2 8.526268808876354 2.7560951929013897 12.002269325494277 0 0 0
170 2 2.0046098862956687 9.347513479157397 1.2428786606892943 0 0 0
171 2 12.207632062566084 2.8916362479427398 7.2045288414713955 0 0 0
172 2 12.092141371578206 1.1967575681408025 1.830404903210386 0 0 0
173 2 8.110384361256559 1.9581277887550346 1.042238534350971 0 0 0
174 2 9.286323222644375 9.782968817084997 8.79581057025166 0 0 0
175 2 3.0611884002290615 11.048505162830708 6.751934321954041 0 0 0
176 2 7.497060643815168 10.302177218169069 4.38119746359253 0 0 0
177 2 7.249196964690058 9.38363875019957 7.508038981724693 0 0 0
178 2 6.853819549152177 10.708995065488754 10.653477892243814 0 0 0
179 2 5.618373951758503 1.5794294492434355 4.955059816455398 0 0 0
180 2 1.3140242428545068 11.568453843684992 1.914784016892842 0 0 0
181 2 5.334405201189396 10.45783243437093 6.5455611129586835 0 0 0
182 2 9.904318806600019 5.671232027912271 1.2919209476670281 0 0 0
183 2 0.5637901384277836 12.321289455265939 9.395244268856494 0 0 0
184 2 6.858547613087382 1.4196568060463 3.087214029353666 0 0 0
185 2 9.666368256420302 6.968788897876981 37.289113264103584 0 0 -1
186 2 10.22280833805146 6.4757382627751054 7.819608312996778 0 0 0
187 2 2.2733639631659077 7.861182508080396 12.225084418433523 0 0 0
188 2 0.49137869342854107 10.250769156297153 10.405955844478253 0 0 0
189 2 10.367885722807666 12.449714072485625 8.067759496672457 0 0 0
190 2 0.7493858995682299 2.1259435892702236 3.3968478149348122 0 0 0
191 2 10.011840641348872 2.782096708163144 4.8746748534389 0 0 0
192 2 0.7573735054720153 9.750120401983057 7.630343309100418 0 0 0
1729 1 12.539898002781909 2.7433083639441285 14.687469857639528 0 0 0
1730 1 5.69783368092012 5.49685318517183 15.184012408900264 0 0 0
1731 1 11.902757993833404 7.60759033800086 14.871943224334709 0 0 0
1732 1 2.6690342115161885 4.53144241292127 16.72448647585605 0 0 0
1733 1 4.289276814525858 11.76094212980638 24.30477928452992 0 0 0
1734 1 7.587308948953025 0.12322548517516482 14.58639309426847 0 0 0
1735 1 5.652446526266646 10.009270339255815 23.050093718692448 0 0 0
1736 1 5.665197576431827 10.866478625210824 13.714414525785815 0 0 0
1737 1 9.461685190065925 11.799112701693812 13.360223007818325 0 0 0
1738 1 12.204484634704583 0.4129263628352567 21.192342067847267 0 0 0
1739 1 5.350955519610216 7.58161009478874 24.028406168932676 0 0 0
1740 1 4.469993463502588 3.47382103647591 14.234021550407524 0 0 0
1741 1 11.869672693523077 11.162555095037051 17.31068368219943 0 0 0
1742 1 3.6734072975006034 7.788631992123956 15.562476842581805 0 0 0
1743 1 9.504270069189454 9.633488048219595 22.661719081612272 0 0 0
1744 1 11.11455944232345 5.347623883123639 17.66546105453258 0 0 0
1745 1 1.370465155386975 3.5608815157512894 12.71159376702852 0 0 0
1746 1 0.9161724090788556 6.6993919620281845 16.942983508954796 0 0 0
1747 1 10.282198145780452 9.788175771986111 15.243836135598828 0 0 0
1748 1 8.064248885203652 5.467350246809253 22.810257928338803 0 0 0
1749 1 8.04852079218236 4.891294721110295 14.237433643263138 0 0 0
1750 1 2.683081324726868 2.7462891291409 21.131226728431223 0 0 0
1751 1 4.806597917300999 6.900141561168382 19.491362031256205 0 0 0
1752 1 4.264425415073397 10.408668056739494 15.922198291897173 0 0 0
1753 1 5.5444618218006285 4.553434963525869 17.55984245157672 0 0 0
1754 1 11.658228375521546 2.08114448831679 23.710796692736306 0 0 0
1755 1 7.917798513411345 8.824402779260613 16.04202955523871 0 0 0
1756 1 5.685062334026475 5.372400099116258 21.605013286207765 0 0 0
1757 1 2.2170522685944887 6.755180065779219 19.201279845489868 0 0 0
1758 1 10.44340101413989 7.562313227807859 19.1963752028405 0 0 0
1759 1 7.624255770510547 3.9978985622835026 19.230464869075398 0 0 0
1760 1 5.484425835333822 1.79564629646025 24.25092844756065 0 0 0
1761 1 1.9554141860480667 11.676882054506876 15.954316047713322 0 0 0
1762 1 2.1140215673761102 5.257356772487418 21.47096206614883 0 0 0
1763 1 6.936079049804586 8.459650502373654 13.304207917281508 0 0 0
1764 1 12.190484386499161 6.339829647951455 22.694095569249537 0 0 0
1765 1 5.794045511086755 2.24634160570041 20.656206759080924 0 0 0
1766 1 7.909248654531557 0.8813369281803919 21.74931557820361 0 0 0
1767 1 0.9358058862896166 1.874630711520237 19.474870455362872 0 0 0
1768 1 9.504864847778855 2.324500231965348 18.499651788209302 0 0 0
1769 1 9.164043924018694 2.9952573847656687 23.236822995701402 0 0 0
1770 1 1.5928326901564105 8.475258518571852 13.558344152689745 0 0 0
1771 1 11.473553381937672 3.664635072543134 19.663950421712336 0 0 0
1772 1 11.946846907181522 0.5782750845162125 13.329159395178488 0 0 0
1773 1 7.763197787456021 2.5874356787494692 13.077843857616307 0 0 0
1774 1 9.053859796028972 9.644077558015422 19.870561530962078 0 0 0
1775 1 2.395511313143247 11.305960464966603 20.07029785197125 0 0 0
1776 1 7.585991562833346 11.787807250345852 17.113197231872643 0 0 0
1777 1 6.156129314906269 9.694499597052026 20.291441676222885 0 0 0
1778 1 7.9134681629498 11.559101144817843 23.67547696541916 0 0 0
1779 1 5.710765750354064 0.7732047883551912 18.366411694957062 0 0 0
1780 1 1.2709791641859545 11.165196247905808 13.523745543949076 0 0 0
1781 1 4.417763118040781 10.70779643031275 18.513381751161354 0 0 0
1782 1 10.849387703295807 6.304571961594647 12.86212363568436 0 0 0
1783 1 1.460268209725756 11.288950564064924 22.600576157059624 0 0 0
1784 1 5.723964277726689 2.041899576756161 15.982288280365168 0 0 0
1785 1 8.898419369907622 7.548618748884107 24.254490047735025 0 0 0
1786 1 10.192304596268233 5.60248553272816 21.14457171327663 0 0 0
1787 1 2.738891156004337 7.05255628706012 23.906059006258335 0 0 0
1788 1 37.06439563312772 9.117556866830956 22.283605660605648 -1 0 0
1789 1 9.812342742685793 12.471013443945218 19.93430521907682 0 0 0
1790 1 1.6969143958283284 1.6619080878279378 16.990785529581952 0 0 0
1791 1 10.269004342416814 3.698026678909615 15.966263539277035 0 0 0
1792 1 0.5399637548156131 8.769506930724306 19.755221948232133 0 0 0
1793 2 11.468831051561711 3.293797543119652 15.449206386713763 0 0 0
1794 2 5.761746263468107 5.149375492487892 15.986206216296521 0 0 0
1795 2 37.087274835373506 7.415727407339794 15.651138574562452 -1 0 0
1796 2 3.5332683432817404 4.710751619618708 17.041922549632368 0 0 0
1797 2 3.3568252568033414 11.6541090191239 24.22551329357006 0 0 0
1798 2 6.2188737081040255 12.001683227605659 14.249837595001743 0 0 0
1799 2 5.648140726598975 8.97712033744504 23.396308666480014 0 0 0
1800 2 6.497874767693957 9.673498543471327 13.521934770266274 0 0 0
1801 2 8.74937262240964 11.88780923177631 12.68049150795009 0 0 0
1802 2 37.048319737631935 0.7460142723093294 20.76689770984591 -1 0 0
1803 2 5.964545457761485 6.926876163251028 23.859538091690062 0 0 0
1804 2 4.97892008251807 4.597472446600824 14.617971973390326 0 0 0
1805 2 11.343701957156942 10.690059801182514 16.68801307655289 0 0 0
1806 2 3.2334475905901603 8.006460586457287 14.358503028771523 0 0 0
1807 2 8.604886379185833 10.5985189039975 22.986199465026598 0 0 0
1808 2 11.331747015759934 4.478706307785893 18.571017083530226 0 0 0
1809 2 0.587315917334439 2.7936773678202336 24.29508661742919 0 0 0
1810 2 0.023695173073117165 5.957554911101362 17.45067826559295 0 0 0
1811 2 9.364262190083123 9.325885448592551 15.449249718212885 0 0 0
1812 2 9.119267289865299 5.7703459970311775 22.08515888807321 0 0 0
1813 2 7.8295531248679255 3.989437066922991 14.16433798548934 0 0 0
1814 2 3.562171618747998 2.6807840178696103 21.099020216297273 0 0 0
1815 2 5.3446737274468425 6.18250978817348 20.643682013092203 0 0 0
1816 2 4.875774994534211 10.809357776352773 14.74646411569855 0 0 0
1817 2 6.531172639323511 4.406069018153501 18.49847875281333 0 0 0
1818 2 11.579639801967117 1.3764574917296661 24.41066212678154 0 0 0
1819 2 7.678848947742329 8.553012646299862 15.112836431133974 0 0 0
1820 2 5.552676339666856 4.472978166902678 21.968891735396042 0 0 0
1821 2 3.574039305877136 7.017424525579254 19.368451937549363 0 0 0
1822 2 11.349994843387874 7.913071749979558 19.248122382475735 0 0 0
1823 2 8.352201488137919 3.0823819438147337 18.579804757136326 0 0 0
1824 2 4.868666046225819 2.2625219783159083 24.88640209509953 0 0 0
1825 2 1.2742325458825197 11.194881971983001 16.71444054943369 0 0 0
1826 2 1.3229655075758613 5.478209714832397 22.017600202283894 0 0 0
1827 2 7.746147648394096 8.268739183953974 12.883621203444932 0 0 0
1828 2 11.939114640040223 6.049220041196107 23.58767451747693 0 0 0
1829 2 5.583163709732194 1.5167939197471234 19.475556369305878 0 0 0
1830 2 8.185310248749502 1.784960523072632 21.792273161632938 0 0 0
1831 2 1.7178362178387776 2.0072907427875313 19.985153916805245 0 0 0
1832 2 10.458718502657993 2.8818895724903717 19.377582634937983 0 0 0
1833 2 8.706652563777837 3.8437362614100277 22.94179130274685 0 0 0
1834 2 0.5581770635012491 8.238666238174225 13.741488258964699 0 0 0
1835 2 10.889608652555712 3.985875283138758 20.367489521120937 0 0 0
1836 2 10.988909544481563 12.683068911397198 13.013322838302342 0 0 0
1837 2 6.676398239326632 2.023746996723289 24.63635952963485 0 0 0
1838 2 9.163881101825961 10.605494051772466 19.482791994315047 0 0 0
1839 2 2.032501771083142 12.193375388594047 19.6222519527025 0 0 0
1840 2 6.819393162044318 12.436687910979286 17.824780609690972 0 0 0
1841 2 5.827649826001462 8.86019407322603 20.130806656578493 0 0 0
1842 2 7.544347519081975 12.464947083681471 22.856473080010463 0 0 0
1843 2 4.988914071558183 36.960623528655226 18.585705478121906 0 -1 0
1844 2 0.41143802171937843 11.782442546034659 13.319051950785598 0 0 0
1845 2 4.557577628093684 10.58239794647365 17.16060873703621 0 0 0
1846 2 11.388293249834316 6.801826224265001 13.79261618742214 0 0 0
1847 2 1.994973049179375 11.35028680154578 21.756626350748782 0 0 0
1848 2 5.168378857456528 2.5677623466763397 15.439694678680528 0 0 0
1849 2 9.207021284135537 8.465558638560436 23.537058069776005 0 0 0
1850 2 11.291635648491958 5.8956997802048905 21.811166842501848 0 0 0
1851 2 2.40292830378355 6.883832832149153 23.02130365303443 0 0 0
1852 2 0.022218749272141142 9.035373786571006 21.35033833777313 0 0 0
1853 2 9.096314487526849 12.64160664727125 20.470898765909528 0 0 0
1854 2 1.7159923152591443 0.4596231225231385 16.679309001494584 0 0 0
1855 2 10.599890293818774 4.3283923651703065 16.661100306379844 0 0 0
1856 2 1.5007139349110679 7.8570289693551025 19.672622354760193 0 0 0
1857 2 12.849673984288657 3.2792740249799426 14.072994100976484 0 0 0
1858 2 6.921825930236679 5.396023966373311 14.852817014872997 0 0 0
1859 2 11.411131939134043 8.318536485832945 15.004667725511768 0 0 0
1860 2 2.35438696108311 3.562171524545227 16.891794369818477 0 0 0
1861 2 4.764398845214887 10.829729262441044 23.4969355954997 0 0 0
1862 2 7.460775530772289 11.96419018115886 15.786808364955741 0 0 0
1863 2 5.608580828782155 10.099060080369014 21.960269709689292 0 0 0
1864 2 5.0577034491124575 11.458610953937024 13.177997092546555 0 0 0
1865 2 8.743277659455085 11.927778908387761 14.110389267896547 0 0 0
1866 2 11.874764051050954 1.336732732802584 21.610686791125634 0 0 0
1867 2 3.986742702309113 7.2654916460752625 23.627380258474414 0 0 0
1868 2 3.6014289619298117 3.5486241772374454 14.190721567049849 0 0 0
1869 2 11.910862027978103 10.347671667636337 17.863165848993 0 0 0
1870 2 4.459072663733342 7.19597028129071 15.288447665430922 0 0 0
1871 2 10.445410593410664 9.529202254002959 22.775128403307043 0 0 0
1872 2 10.747087801932558 6.1576101798072855 17.931325618392943 0 0 0
1873 2 1.5335336892676965 4.352201264377873 12.266277145693554 0 0 0
1874 2 1.5598704208360092 6.086635361845571 16.452767600755042 0 0 0
1875 2 9.867156598699314 10.316736481929045 14.391698107351408 0 0 0
1876 2 8.323201778811127 6.227584881672357 23.39998103478997 0 0 0
1877 2 8.73827533855457 4.817945307406165 14.908015481483767 0 0 0
1878 2 2.2239675878088856 3.846228298999158 21.35375725928216 0 0 0
1879 2 4.778159746149689 6.314611857511664 18.772015992148862 0 0 0
1880 2 4.202097972053338 9.045751684263797 15.74225372539959 0 0 0
1881 2 5.61811864962064 3.653785440077105 17.4087186331506 0 0 0
1882 2 10.496983600905596 2.8097518240098536 23.596005931800526 0 0 0
1883 2 7.581251404148293 8.201948971520935 16.617421243594002 0 0 0
1884 2 6.950752374545726 5.687471669628249 22.12233990949093 0 0 0
1885 2 1.8278571968885637 6.692715335962422 17.866974455514626 0 0 0
1886 2 9.584150345190553 8.60577337067317 19.18143065582805 0 0 0
1887 2 7.9427383233353765 4.810115348961275 19.390212035617683 0 0 0
1888 2 4.764937393246347 0.5946474749046778 24.20452322461499 0 0 0
1889 2 3.2220474011788602 11.062559931821486 15.700629947807327 0 0 0
1890 2 2.008907302950918 6.02440328596963 20.474661630879158 0 0 0
1891 2 6.277840104649393 7.970418059239049 12.275401363980103 0 0 0
1892 2 12.223680370732096 7.716827002240546 22.709572453615934 0 0 0
1893 2 6.226540039402721 2.9063262121109004 20.205240028867635 0 0 0
1894 2 6.740407234879559 1.5148209360477378 21.183614886037446 0 0 0
1895 2 1.2491184632566854 1.5494195299214502 18.13854007578509 0 0 0
1896 2 9.358234557187608 1.5080522083210026 18.788462336451577 0 0 0
1897 2 8.638387398482305 2.6778723637352995 24.532054373871265 0 0 0
1898 2 1.5947715744765942 9.76715232790017 13.485883431131068 0 0 0
1899 2 12.599317569683224 3.1306895109697126 19.348640246651208 0 0 0
1900 2 12.098851412076833 1.2355455551582282 14.154334255299618 0 0 0
1901 2 7.414947167181636 1.839421190590578 13.513536422508885 0 0 0
1902 2 9.653159165113548 9.556820199618304 21.18982142766137 0 0 0
1903 2 3.0976948366846306 10.974545607686444 19.413304444158147 0 0 0
1904 2 7.615973585652176 10.816107558200418 17.286707825936908 0 0 0
1905 2 7.191453663801892 9.745630327586673 20.254543274819564 0 0 0
1906 2 7.04776554523967 11.174911460502935 23.843749227820364 0 0 0
1907 2 5.659038748616681 1.4520852900289385 17.53582737001698 0 0 0
1908 2 1.630220332035317 11.561645533677057 14.694043189046264 0 0 0
1909 2 5.094387639616566 10.210698920097714 18.962005309119036 0 0 0
1910 2 10.423797169827063 5.689177539802388 13.43469856393899 0 0 0
1911 2 0.4759185383893752 12.257481994001242 22.147380539492296 0 0 0
1912 2 6.187128923393284 1.528639621360038 15.392046397308398 0 0 0
1913 2 9.431017576130973 7.341571718011213 11.913557514432155 0 0 0
1914 2 10.399147153678788 6.5380271229275895 20.515578645621197 0 0 0
1915 2 2.0362886265981635 7.675751309015445 24.714862046845646 0 0 0
1916 2 0.7743886411105678 10.228607581006054 22.664376706958226 0 0 0
1917 2 10.80528095365334 12.882673619335954 20.767948271185425 0 0 0
1918 2 1.0989349253621448 1.683613238270965 16.20246331268911 0 0 0
1919 2 10.033728199056092 2.9317932140855234 16.466007243349207 0 0 0
1920 2 1.0549656813329 9.62375105048272 19.756296638781517 0 0 0
3457 1 12.596760428865935 2.5600669144930515 27.257070934680744 0 0 0
3458 1 5.716969714590924 5.774895820672689 27.527022238243102 0 0 0
3459 1 12.0128260325868 7.676882508947034 27.391210380845536 0 0 0
3460 1 2.6071369518931085 4.29551671760399 29.636211821254157 0 0 0
3461 1 3.9245302586280166 11.91809067120892 37.04221736634598 0 0 0
3462 1 7.161021995560774 37.13237373403927 27.120036775283733 0 -1 0
3463 1 5.814301175071769 10.1432820031691 35.4583791879159 0 0 0
3464 1 5.831786331661563 10.889106530986062 26.18112485301483 0 0 0
3465 1 9.21937968075775 12.061072392894479 26.197294978326855 0 0 0
3466 1 11.900407757982322 0.7862591890335066 33.84512135492549 0 0 0
3467 1 5.336996914455562 7.559540716178492 36.48512656057491 0 0 0
3468 1 3.820782951982195 3.2066873845360275 26.232865663173087 0 0 0
3469 1 12.347118009602063 10.540178042491888 29.761832362654594 0 0 0
3470 1 4.01861162929185 8.055396553571374 27.330228435223155 0 0 0
3471 1 9.505885800919884 9.654435059217427 35.101990491906676 0 0 0
3472 1 11.254723183892557 5.541120527440032 30.119945981448108 0 0 0
3473 1 0.8781603739850585 3.448192976694011 25.118997347482527 0 0 0
3474 1 1.0557428566371339 6.323911875442678 29.35060480200444 0 0 0
3475 1 10.354434439882985 9.753030698207741 27.6618972299248 0 0 0
3476 1 8.087114898447785 5.506713696335248 35.1917213649988 0 0 0
3477 1 8.715320338213628 5.105111649844037 26.385535361491186 0 0 0
3478 1 2.8861696610444074 2.922539436244183 33.7424730645203 0 0 0
3479 1 5.018309443983393 6.7467911281520925 32.51104486204882 0 0 0
3480 1 4.244982581759512 10.406611779631765 28.465427140861795 0 0 0
3481 1 5.562251174141758 4.572676739626759 29.892992006227622 0 0 0
3482 1 11.93856950123736 2.4679716211367966 36.24744243689683 0 0 0
3483 1 7.7373317500021 8.765941846307983 28.350201242287937 0 0 0
3484 1 5.454760319489605 5.534817942536825 34.817086210498736 0 0 0
3485 1 2.2566684963979142 6.991072309145202 31.773974216780747 0 0 0
3486 1 10.321609714642143 7.654415599694865 31.72537377456208 0 0 0
3487 1 7.4519980060515 4.054678252029501 31.763358136581655 0 0 0
3488 1 5.290829379028175 2.8527227997796625 36.76936442296506 0 0 0
3489 1 1.7536072013290462 11.566406994620916 28.550845887353532 0 0 0
3490 1 1.8546249804149268 5.331971710083543 33.78479136495528 0 0 0
3491 1 7.058676514150006 8.554620252699019 25.854651750977872 0 0 0
3492 1 12.146990146087244 6.483846795453254 35.34503328646036 0 0 0
3493 1 5.363467765825841 2.619900635871594 32.902114871571996 0 0 0
3494 1 7.808724945432083 0.992690621217741 34.314756732255596 0 0 0
3495 1 1.1893375463451321 1.9234610175223077 32.03301462464756 0 0 0
3496 1 9.274858306472971 2.3976670908190605 31.18655102260839 0 0 0
3497 1 8.929522164143094 2.861412802145791 35.586496918147475 0 0 0
3498 1 1.6938066726095775 8.478922661832506 25.79157739284923 0 0 0
3499 1 11.491834537607119 3.757699471286808 31.88714516639571 0 0 0
3500 1 11.96357928385504 0.5327290541414623 25.83063163767401 0 0 0
3501 1 7.651456068116429 2.4679932512770373 25.361333727530628 0 0 0
3502 1 8.968625871953817 9.69556317101782 32.50063612145694 0 0 0
3503 1 2.35415253485547 11.009425181884653 32.09360254217071 0 0 0
3504 1 7.745598504028976 11.182680388779346 29.313627652483753 0 0 0
3505 1 6.278645063792527 9.376842801109387 32.908377645210926 0 0 0
3506 1 7.925942490384642 11.518102083528744 35.94834103306084 0 0 0
3507 1 5.471734584136543 0.8707413802573561 30.767640801682447 0 0 0
3508 1 1.4000640817205752 11.120753858072973 25.96482894289385 0 0 0
3509 1 4.747309025643449 10.812370063066599 31.050401598419825 0 0 0
3510 1 10.822087184500095 6.098663112171301 25.264470706979775 0 0 0
3511 1 1.2162827875919393 11.442863935963297 35.38145033084349 0 0 0
3512 1 5.618281267536216 2.15578435520682 28.329677321417698 0 0 0