LAMMPS data file via write_data, version 24 Dec 2020, timestep = 1000

5184 atoms
2 atom types

0 37.3341 xlo xhi
0 37.3341 ylo yhi
0 37.3341 zlo zhi
0 0 0 xy xz yz

Masses

1 15.9994
2 1.00794

Atoms # atomic

1 1 12.632486283210756 2.756894885929415 2.684312714097272 0 0 0
2 1 5.3780894477164916 5.4880204176249405 2.5156780569280683 0 0 0
3 1 12.0511528994038 7.485113618690808 2.442822609216422 0 0 0
4 1 2.8846976239000206 4.304280844300982 4.363833560579348 0 0 0
5 1 4.049786505983398 11.919964439882913 11.773163881315657 0 0 0
6 1 7.2201835778708405 0.4061930397797995 2.2691841697937662 0 0 0
7 1 5.610691959815364 10.071408674360224 10.393776434726465 0 0 0
8 1 5.761185910125293 10.62074897641256 1.4139257505048157 0 0 0
9 1 9.450299681444411 11.82829256861607 0.9468357691724368 0 0 0
10 1 11.904312056641379 0.4565892656172768 9.044221179202443 0 0 0
11 1 5.387871381619852 7.634731388449566 11.250178906538933 0 0 0
12 1 3.9009194369074645 3.31753940167075 1.5009056602454955 0 0 0
13 1 12.036890522046521 10.262956119306002 4.806430752632488 0 0 0
14 1 3.879978010168116 7.806498494154462 2.701776821813629 0 0 0
15 1 9.51234519255923 9.75633398360561 10.052216512986014 0 0 0
16 1 11.368670076768085 5.4839766588719705 5.339957138317061 0 0 0
17 1 1.2751436699068126 3.3042253005728095 0.22822734786244328 0 0 0
18 1 1.4515208811773337 6.491947815382828 4.73994566971327 0 0 0
19 1 10.089703306743433 9.970428603680041 2.9646409859129768 0 0 0
20 1 8.391540202421552 5.4705936285162275 10.26125586827634 0 0 0
21 1 9.010936814385504 4.739659940716756 1.851552854361744 0 0 0
22 1 2.9308594018361926 3.192556937099941 8.53295748834636 0 0 0
23 1 4.909661442230645 6.997612357915 7.428990653919982 0 0 0
24 1 4.232531631523086 10.420893831812588 3.6064458569800757 0 0 0
25 1 5.444142331732969 4.399104730075482 4.718158508547841 0 0 0
26 1 12.165153812662387 2.2727760846427443 11.109056107717405 0 0 0
27 1 7.675964127796977 9.063192550632559 3.5281439058397925 0 0 0
28 1 5.686997845307158 5.384724756164849 9.657914439944472 0 0 0
29 1 2.15650427341661 7.179781935317723 7.33604958650988 0 0 0
30 1 10.21072062321059 7.511737095234663 6.856201469799059 0 0 0
31 1 7.495980522455711 3.9088218373280927 6.638462886067752 0 0 0
32 1 5.346272671940839 2.4652356999936873 12.015191666251614 0 0 0
33 1 1.936659106821942 11.714626502524029 3.6797834006427874 0 0 0
34 1 2.091251210015543 5.649018850092627 9.389408596947032 0 0 0
35 1 6.978201768682393 8.456361040896132 0.9296201970005661 0 0 0
36 1 12.327288425144422 6.570639407046948 10.45591454188675 0 0 0
37 1 5.5471956535296805 2.442160852332452 7.993991523876304 0 0 0
38 1 7.94074870359285 1.010964481707285 9.130083736880701 0 0 0
39 1 1.016804639132555 2.00254226934159 7.031833640303346 0 0 0
40 1 9.421660503529134 2.2244678697131306 5.991979290670312 0 0 0
41 1 9.067958711958925 2.891197383102873 10.890936786116345 0 0 0
42 1 1.8099752148997987 8.405782649953698 1.2138903676885164 0 0 0
43 1 11.306488539246274 3.703460614300323 7.290990418010016 0 0 0
44 1 11.866342173399074 0.6910026148884025 0.929265900795033 0 0 0
45 1 7.784373763715892 2.642796445952371 0.6147174790369263 0 0 0
46 1 8.929766121787841 9.729015450364402 7.510795595974455 0 0 0
47 1 2.094005727755405 11.039756074591542 7.5328862935378575 0 0 0
48 1 7.727703999532193 11.559947403243951 4.760887602357362 0 0 0
49 1 6.275268691982523 9.320349029884852 7.762501985110916 0 0 0
50 1 7.833656560226162 11.385436650457 11.220742383911084 0 0 0
51 1 5.560147938230643 0.7613170189682802 5.948082596701191 0 0 0
52 1 1.6908106794122504 11.205227269557877 0.9262301113351022 0 0 0
53 1 4.6910786108382 10.948754354079764 6.155427404159742 0 0 0
54 1 10.647150331715967 6.312798294925613 0.4987920638432693 0 0 0
55 1 1.2230814597158688 11.321576795968307 10.153759673951933 0 0 0
56 1 5.679994131453221 1.996873859505878 3.726561795227225 0 0 0
57 1 8.763132168606203 7.784276500838914 11.540333862944268 0 0 0
58 1 10.50702130904352 5.677183373433496 8.6577455514374 0 0 0
59 1 2.848901174328452 6.983225600507961 11.700748350529791 0 0 0
60 1 36.94172040540793 9.217706557942464 10.346002492036577 -1 0 0
61 1 9.547148277329894 12.432323463022648 7.597554255362277 0 0 0
62 1 1.5644913835702643 1.6000518367503547 4.582957298681256 0 0 0
63 1 10.434712494268007 3.6136132725196624 3.736432553124407 0 0 0
64 1 0.3797570401903594 9.06178869011845 7.703890213217165 0 0 0
65 2 11.455701549000546 3.071509365200474 3.0591617850122246 0 0 0
66 2 5.58591999147722 5.261969143001426 3.601553072459955 0 0 0
67 2 37.231862150796346 7.63935094515122 3.4127342442124595 -1 0 0
68 2 4.168409060428352 4.374491878120163 4.908264548368227 0 0 0
69 2 3.121033500492741 11.940730226043533 11.724259198207523 0 0 0
70 2 6.944162974701719 11.833762295746563 1.9591195478901828 0 0 0
71 2 5.8239048381155 9.276417725391466 10.992078197406354 0 0 0
72 2 6.40222050214367 9.602347710785613 0.9719105092149698 0 0 0
73 2 8.70531540231982 11.582100949853809 37.305762611269174 0 0 -1
74 2 0.07774024922691543 1.4404204690403553 8.25388995194639 0 0 0
75 2 5.5765442472699 6.906999846793615 10.774466002518684 0 0 0
76 2 4.3306835473189365 4.455654770365777 1.8770953147508822 0 0 0
77 2 11.17398588847483 10.193472112870037 4.262932209927007 0 0 0
78 2 2.5525034027700517 7.758531703280598 2.1976316423315634 0 0 0
79 2 8.836909378825037 10.588929332205339 10.788136245722374 0 0 0
80 2 11.443679673589447 4.468143545609135 6.141380274083679 0 0 0
81 2 0.8918822737281158 3.1029554770132153 11.983100878365068 0 0 0
82 2 0.6677788793111048 5.998284692591604 5.00563904883201 0 0 0
83 2 9.317010567968989 9.588664431850743 3.458122284842416 0 0 0
84 2 9.346951368247344 5.422793696488391 9.354094243601365 0 0 0
85 2 8.46133355867422 4.095938610184921 1.3741497203739261 0 0 0
86 2 3.8699234688639743 3.023462306789913 8.359577528946431 0 0 0
87 2 5.299595890054672 6.242731434636069 8.39878042305129 0 0 0
88 2 5.0617983741882195 10.732380233643259 2.6910014169668264 0 0 0
89 2 6.539550684388739 4.13057566399253 5.626386135394111 0 0 0
90 2 11.965484501585534 1.5455590003090849 12.107948144236722 0 0 0
91 2 7.254782882249862 8.72132819510457 2.21558500154559 0 0 0
92 2 5.335530025457718 4.51650296327836 9.807347349169465 0 0 0
93 2 3.2193137327695975 7.19560752054242 7.404188343685972 0 0 0
94 2 10.903907456157297 8.106620612849515 7.131611542791574 0 0 0
95 2 8.625435414267947 3.130590630011141 6.460017993643472 0 0 0
96 2 4.661961294209333 3.092879671062486 12.974080510228843 0 0 0
97 2 1.2833324050193244 11.361054251524163 4.205145873133329 0 0 0
98 2 1.0741529148459392 5.835958496858127 9.590098409364069 0 0 0
99 2 7.9170453337198605 8.139620127554263 0.14806908029190735 0 0 0
100 2 11.879925370862422 6.231842691052483 11.253395002737067 0 0 0
101 2 5.492815311842385 1.565839419324205 7.106404676365659 0 0 0
102 2 8.60769225630783 1.975124877880536 10.061994683880073 0 0 0
103 2 1.8891317470068212 2.1165195638009173 7.337353571444692 0 0 0
104 2 9.968827971355116 2.922573303352604 6.5150012340038055 0 0 0
105 2 8.992974641885144 3.735054830019119 10.592951963815716 0 0 0
106 2 0.5647111508278643 8.13938123953061 1.6512595118017313 0 0 0
107 2 11.331717316809351 4.521253717151837 7.775991927043667 0 0 0
108 2 10.746976497779148 12.203041842464836 0.7531517238380597 0 0 0
109 2 6.41137057855611 2.43987861177443 12.677991507229866 0 0 0
110 2 9.19323257479547 10.671423387453887 7.582928552658714 0 0 0
111 2 1.8555564490717276 11.989273448985948 7.471426797113719 0 0 0
112 2 7.107065484331408 11.951934392387654 5.292039709419413 0 0 0
113 2 5.8228789986226674 8.461497891725093 7.695534339569563 0 0 0
114 2 7.952774246239037 12.026402503531306 10.589161549142787 0 0 0
115 2 5.0338975727224495 37.261604875286594 5.870640910410716 0 -1 0
116 2 0.9079166061573344 11.35554808522819 0.24025064655227987 0 0 0
117 2 4.576931535707223 10.546847068312472 4.826352423736109 0 0 0
118 2 11.078546716650642 6.756994283136335 1.1859395817339922 0 0 0
119 2 2.010423238057465 10.867267191896934 9.645459755232526 0 0 0
120 2 4.835677246826132 1.8320556422566177 3.022399841028632 0 0 0
121 2 8.915223656184361 8.641407959980178 10.502807998458799 0 0 0
122 2 11.024828132369054 6.094194256794811 9.31395400396508 0 0 0
123 2 2.8944055732002005 6.600076648221105 10.748864671279307 0 0 0
124 2 0.03854346200504557 9.13922945985871 8.995729832155671 0 0 0
125 2 8.752028160197206 13.09226881005912 8.329678011984875 0 0 0
126 2 1.9650997255944975 0.6907719068045994 4.341293602589548 0 0 0
127 2 10.696725327416098 4.36690916138274 4.385455056210457 0 0 0
128 2 1.3094928571355102 8.23947707921889 7.535735884732619 0 0 0
129 2 12.823577257414355 3.154383930554242 1.798061661826174 0 0 0
130 2 6.265077795759599 5.840078978516456 2.358013932059561 0 0 0
131 2 11.32142700849819 8.520278774232183 2.636087470098786 0 0 0
132 2 2.594456864960472 3.4361401326304026 4.698636113689235 0 0 0
133 2 4.305828990960432 11.27392032741856 11.198524251567143 0 0 0
134 2 7.5323374252143145 12.328646010426263 3.6757015169412637 0 0 0
135 2 6.0321709651461415 9.820904391814606 9.077182960841494 0 0 0
136 2 5.0733062738364625 11.146190267777651 0.7910644094788961 0 0 0
137 2 8.42712393406017 12.284731017738348 1.6785264695029702 0 0 0
138 2 11.774661384358776 1.2973082559018512 9.67080518899825 0 0 0
139 2 4.124158165825572 7.1505477599092755 11.321485093159112 0 0 0
140 2 3.0544142257464952 3.386247562087073 1.285314023757423 0 0 0
141 2 12.102137610123549 9.734404916362452 5.6493189680098785 0 0 0
142 2 4.417206817909728 6.960630962308158 2.8778502392547867 0 0 0
143 2 10.789306853054363 9.591525118495515 9.936254388927265 0 0 0
144 2 10.920702754574428 6.226474730093279 5.924846839363679 0 0 0
145 2 1.5768979351042152 4.132469152843062 37.08229798215342 0 0 -1
146 2 1.9354973776252766 5.3062596150712515 4.663366000777776 0 0 0
147 2 10.009316470912992 10.237072646513788 2.158226399192828 0 0 0
148 2 8.517371420819659 6.593161677078664 10.8781481186625 0 0 0
149 2 9.652349145472204 4.158104175570695 2.655283851269461 0 0 0
150 2 2.7006594072787324 4.144727462634186 8.764499344935055 0 0 0
151 2 4.918889058111212 6.366566317810118 6.685874330203861 0 0 0
152 2 4.0389311212759385 9.184205574110285 3.240235975946862 0 0 0
153 2 5.7306207675850525 3.557060525861025 4.449247844947684 0 0 0
154 2 11.475902485820958 2.890522268926458 11.161941618968212 0 0 0
155 2 7.76014894104314 8.40319962308797 4.130510068439612 0 0 0
156 2 7.069770723421034 5.497174876491942 9.957031057979673 0 0 0
157 2 1.8143518174168738 6.738708283524482 5.92223886317058 0 0 0
158 2 9.371181761813443 8.591370564405851 7.000503918189019 0 0 0
159 2 7.798471678346153 4.791014198187295 7.10048271546061 0 0 0
160 2 4.871047124334776 1.6961112728569296 11.720998954370783 0 0 0
161 2 3.0419089589846893 10.955611924429116 3.5511246571896256 0 0 0
162 2 2.3959866524365903 6.340434095429249 8.301613462429723 0 0 0
163 2 6.224557609141426 7.735215798523929 0.1796252589319806 0 0 0
164 2 12.360975436271453 7.725010281751315 10.397487218247495 0 0 0
165 2 6.318838870852597 2.8693472919739498 7.652730037035825 0 0 0
166 2 7.035972706132808 1.1867651633637077 8.830174932825 0 0 0
167 2 1.3131033632332871 1.3958538561840748 5.8109328480448 0 0 0
168 2 9.530477205236373 1.1463503526467091 6.513257240444325 0 0 0
169 2 8.391788630204067 2.6324434311631593 12.110799657966123 0 0 0
170 2 2.1602052650403 9.391420950879427 1.089621703306075 0 0 0
171 2 12.235584936371833 2.756905015169804 7.184901897947863 0 0 0
172 2 12.212139933586117 1.6054602522680332 1.8328234349680164 0 0 0
173 2 8.0757134611582 1.9141835206775994 1.1883516181357276 0 0 0
174 2 9.240668003689839 9.583166112985435 8.87763863737882 0 0 0
175 2 3.21588982139498 10.870792176781604 6.904641251568114 0 0 0
176 2 7.143056248781022 10.426800303932191 4.435486559787389 0 0 0
177 2 7.324963370784811 9.198826399125632 7.772440989955434 0 0 0
178 2 6.543352995268883 10.639158109313339 11.023649433095208 0 0 0
179 2 5.708761572590191 1.3659689461680848 5.168301308185811 0 0 0
180 2 1.4441510505505522 11.656715257837448 1.676221487005226 0 0 0
181 2 5.441632522998573 10.594981099433236 6.614532991122568 0 0 0
182 2 9.847208904803908 5.697468508214566 1.3019315350092613 0 0 0
183 2 0.28030913525969425 12.230419979828069 9.594740507705023 0 0 0
184 2 6.587321359081349 1.396808736719328 3.0654267340993044 0 0 0
185 2 9.619735718952517 7.004807134773389 37.21816517002198 0 0 -1
186 2 10.51806533152948 6.671361465539609 7.785390562078516 0 0 0
187 2 1.9423944182832253 7.865779179123239 12.317841070979869 0 0 0
188 2 0.46031942751848387 10.16053409588166 10.37378111406786 0 0 0
189 2 10.322731467948268 12.584774758733731 8.114812042458997 0 0 0
190 2 0.6527751102712805 2.068904212815833 3.5141081767268183 0 0 0
191 2 9.766809776009826 2.7386533135897024 4.561428317472101 0 0 0
192 2 0.8732581382582864 9.934669138777988 7.653445959902841 0 0 0
1729 1 12.48148444255915 2.685937119508038 14.71822905935213 0 0 0
1730 1 5.708369236849449 5.607300819281084 15.118616095432275 0 0 0
1731 1 11.903543747147346 7.669535680617287 14.88643262532363 0 0 0
1732 1 2.6847644956698877 4.521239757278928 16.68904611339737 0 0 0
1733 1 4.260885876191028 11.826573495575808 24.33268999151548 0 0 0
1734 1 7.621850675125234 0.20553683227933295 14.527927337696612 0 0 0
1735 1 5.619950329283941 9.999550754700845 23.023310507676623 0 0 0
1736 1 5.707482251821678 10.958443923030291 13.797577016134586 0 0 0
1737 1 9.589068627018055 11.838861352423546 13.302523242210802 0 0 0
1738 1 12.123964597877505 0.4178512628066447 21.219086655774884 0 0 0
1739 1 5.298349139740714 7.559380087755835 24.085951595865097 0 0 0
1740 1 4.555705548193041 3.4489508714057426 14.291819508517724 0 0 0
1741 1 11.88541898827963 11.175305031193501 17.270280622161554 0 0 0
1742 1 3.6912129897123758 7.8411489790614235 15.587674138837116 0 0 0
1743 1 9.479474122862511 9.702727171108668 22.649197842158568 0 0 0
1744 1 11.151237386257343 5.3748414312103145 17.666242249106975 0 0 0
1745 1 1.3257792560655135 3.531992282720085 12.69745790577637 0 0 0
1746 1 0.9505997379764742 6.638884399740884 17.002067547467718 0 0 0
1747 1 10.20312402964679 9.753818552441825 15.276853255348938 0 0 0
1748 1 8.094369132624053 5.401786105604218 22.726942026639627 0 0 0
1749 1 8.049736345051343 4.961524805881579 14.261082368929088 0 0 0
1750 1 2.7416177602169904 2.6437279510025635 21.157052253157016 0 0 0
1751 1 4.7876712476753935 6.814178915912829 19.514552619432468 0 0 0
1752 1 4.311104152533183 10.371511268502024 15.874679129890696 0 0 0
1753 1 5.598709447404866 4.5626803046186675 17.585949386630077 0 0 0
1754 1 11.613926733647073 2.1110595056018497 23.68739663094068 0 0 0
1755 1 7.943217748876283 8.701728098014744 16.044313330769615 0 0 0
1756 1 5.699563498327724 5.399200864754209 21.623209099504034 0 0 0
1757 1 2.2278631582766977 6.779139771867576 19.300824933320232 0 0 0
1758 1 10.432349159871055 7.595326413089371 19.168476484733162 0 0 0
1759 1 7.5746540036129115 4.024196521147188 19.18170926253442 0 0 0
1760 1 5.438307282944156 1.777334361744728 24.18775248387401 0 0 0
1761 1 1.9788016603013945 11.703438581516345 16.020518905846142 0 0 0
1762 1 2.1009846501397678 5.26875185669409 21.432856763867278 0 0 0
1763 1 6.895545716805117 8.397654528620963 13.256243102756494 0 0 0
1764 1 12.145186867389734 6.420508872250512 22.77088434484665 0 0 0
1765 1 5.76641137883187 2.292049523817835 20.559541269754888 0 0 0
1766 1 7.918818984678202 0.8412702043494149 21.74306162509951 0 0 0
1767 1 0.8953683392564389 1.8535139558221867 19.499048726031287 0 0 0
1768 1 9.492422753567798 2.2759043038520597 18.511622536092293 0 0 0
1769 1 9.188701308011508 2.9469953769231894 23.23553861810518 0 0 0
1770 1 1.6330276343139456 8.45473893481903 13.625997064920675 0 0 0
1771 1 11.443489407133436 3.6880629429376315 19.727151271989243 0 0 0
1772 1 11.932424721319455 0.4879952495884058 13.276848791203792 0 0 0
1773 1 7.78128341302557 2.519587350260381 13.148589149933537 0 0 0
1774 1 9.06786604150045 9.672780041730679 19.82652215386168 0 0 0
1775 1 2.4252390770411014 11.27371833357034 20.045423354566736 0 0 0
1776 1 7.65783573742031 11.777363721577208 17.07876380749227 0 0 0
1777 1 6.323822601984161 9.656582866624028 20.30146306202608 0 0 0
1778 1 7.950287971666612 11.606018567100334 23.677258339730155 0 0 0
1779 1 5.773448398159618 0.7878749731917135 18.390484836029177 0 0 0
1780 1 1.244374629115959 11.078666388629017 13.504275351558409 0 0 0
1781 1 4.442579711537399 10.699072945442925 18.45075871917829 0 0 0
1782 1 10.75905376685337 6.250930203802697 12.83769316037325 0 0 0
1783 1 1.3904998127021142 11.338456951191388 22.627885137235147 0 0 0
1784 1 5.781153221117466 1.9331953732475275 15.880336764143012 0 0 0
1785 1 8.936851423878483 7.573700452994944 24.205115399283763 0 0 0
1786 1 10.078650645937643 5.635281910511445 21.10888344056463 0 0 0
1787 1 2.7730416891119813 7.08810426656271 23.84169461001999 0 0 0
1788 1 37.109060006916145 9.179509668979442 22.267939892305865 -1 0 0
1789 1 9.782646904035472 12.412380181766395 19.956318848479633 0 0 0
1790 1 1.6569107244431964 1.6959376751345157 16.977721538136624 0 0 0
1791 1 10.293871133377316 3.605305474684743 15.909427859128627 0 0 0
1792 1 0.6291563057936893 8.879740421186616 19.635564409345584 0 0 0
1793 2 11.405978191631766 3.2362668614344914 15.116655336144575 0 0 0
1794 2 5.649925162304911 5.30047313194901 15.98396452134638 0 0 0
1795 2 37.20130039417959 7.315265560527045 15.577961485760593 -1 0 0
1796 2 3.6438458183214704 4.610216884487625 16.960718865480096 0 0 0
1797 2 3.328772461854023 11.571702672210602 24.271400239779087 0 0 0
1798 2 6.614858635009921 12.117850646755675 14.269633289848976 0 0 0
1799 2 5.510056610390197 8.660294940539611 23.426981713123514 0 0 0
1800 2 6.410250418777461 9.54639406146923 13.530333576232358 0 0 0
1801 2 8.9931347988329 11.718876066150626 12.457061271398974 0 0 0
1802 2 36.9944431687728 0.8497884034801942 20.859900399290513 -1 0 0
1803 2 5.914440569133324 7.044371583039109 23.555745571580044 0 0 0
1804 2 5.16193284323609 4.588735957871407 14.535307179464162 0 0 0
1805 2 11.289764584000284 10.736260506849433 16.660427807551308 0 0 0
1806 2 2.6143913562968373 7.995226886792565 14.566081107816036 0 0 0
1807 2 8.861682829075507 10.638506375387461 23.23907577238997 0 0 0
1808 2 11.315448925230937 4.572101878821766 18.288453783024256 0 0 0
1809 2 0.5222475446335518 2.9003023237852017 24.51206257314901 0 0 0
1810 2 37.191200484085584 6.174838211238185 17.480948835945156 -1 0 0
1811 2 9.24117151139563 9.364348083664192 15.701943995850979 0 0 0
1812 2 9.217595015455693 5.791069044496915 22.001310803497184 0 0 0
1813 2 8.020438934807748 4.02992605225332 13.984441413764547 0 0 0
1814 2 3.649205767171554 2.5768056072729615 21.069560146502862 0 0 0
1815 2 5.222342868498568 5.9700006114312725 20.46053245632308 0 0 0
1816 2 4.74397509158009 10.856176433482279 14.732725339115323 0 0 0
1817 2 6.539582618052841 4.478119895191633 18.4182925374688 0 0 0
1818 2 11.407172059975496 1.3693577455933204 24.23482473224535 0 0 0
1819 2 7.489319636258893 8.316092193529272 15.11572336646801 0 0 0
1820 2 5.416215426612776 4.540224183959571 21.82953564160522 0 0 0
1821 2 3.411844827922655 7.213355884198767 19.27665304899222 0 0 0
1822 2 11.115888381267409 8.248239495218 19.2786657635029 0 0 0
1823 2 8.299150941542901 3.1716559879611346 18.633182200819004 0 0 0
1824 2 4.690559130959058 2.033840644709572 24.691017425842176 0 0 0
1825 2 1.19188114879109 11.313814439955015 16.54907180459621 0 0 0
1826 2 1.2501959721939435 5.4270926281831615 21.931004559258888 0 0 0
1827 2 7.672576460644622 8.315056464666123 12.718319183287647 0 0 0
1828 2 11.78012956169826 6.135937152022676 23.603189252680043 0 0 0
1829 2 5.701444813433128 1.3826958245613354 19.542755264077897 0 0 0
1830 2 8.176290041564084 1.7774347613821624 22.16431004336825 0 0 0
1831 2 1.6509218523639089 2.170901937397915 20.009168194068657 0 0 0
1832 2 10.530159936405708 2.7364906269855926 19.13577098991514 0 0 0
1833 2 8.770780928883546 3.8024924178458352 22.991666946283246 0 0 0
1834 2 0.666773326706221 8.305624704444789 14.010856525473587 0 0 0
1835 2 11.07602177062672 4.27202165294436 20.344609383817925 0 0 0
1836 2 10.891324779870537 12.848635499990648 13.199886269518489 0 0 0
1837 2 6.480225886823478 2.104975780675003 24.88516216306787 0 0 0
1838 2 9.265631391307743 10.529857783662019 19.483618502181773 0 0 0
1839 2 2.210092825546326 12.060509832055002 19.577771230770416 0 0 0
1840 2 6.8046227856451535 12.395533554565636 18.0520236086855 0 0 0
1841 2 5.976235493196029 8.74696682816408 20.020086582122577 0 0 0
1842 2 7.541954181409344 12.558817516830809 22.953422562897504 0 0 0
1843 2 4.8509744567559725 37.09928453294958 18.443180778829774 0 -1 0
1844 2 0.4643031070194446 11.682988416149811 13.252398441561684 0 0 0
1845 2 4.69936311824013 10.576126670164955 17.1887938054908 0 0 0
1846 2 11.307315894013236 6.786009203523285 13.730994472836905 0 0 0
1847 2 2.1125872624207043 11.198084012382237 21.983409989940498 0 0 0
1848 2 5.246929365589803 2.5946718613977287 15.341979812614518 0 0 0
1849 2 9.133448407773761 8.321211771119676 23.589638428433847 0 0 0
1850 2 11.366657574518513 5.78790106664045 21.68946060334231 0 0 0
1851 2 2.47907554533608 7.280725029110654 22.985827609760648 0 0 0
1852 2 36.94027229380082 8.985441935975606 21.391957379443785 -1 0 0
1853 2 9.097321595944228 12.614739148241398 20.62996596845242 0 0 0
1854 2 1.734151860278027 0.419906231967327 16.787006589333277 0 0 0
1855 2 10.440429145038536 4.452037269830499 16.831564875357653 0 0 0
1856 2 1.5651530346239495 7.877824954481864 19.500085092876127 0 0 0
1857 2 12.916295321081193 3.117677933603672 14.017022735684506 0 0 0
1858 2 6.580046874886827 5.389978439849175 14.80358355825193 0 0 0
1859 2 11.376401425711435 8.432496295061583 15.043199210034667 0 0 0
1860 2 2.3058173641980484 3.28603471944068 17.027315810360143 0 0 0
1861 2 4.631558061598415 11.231368120478225 23.42159105639319 0 0 0
1862 2 7.130007534471977 12.133683658960189 15.920793909182455 0 0 0
1863 2 6.076264496401807 9.82526354978685 22.17689815914052 0 0 0
1864 2 5.046542983790992 11.277663959770914 13.236436072387484 0 0 0
1865 2 9.24302252317884 11.740676627142626 14.169473358040737 0 0 0
1866 2 12.04101222876412 1.0493060355125996 21.896451551256124 0 0 0
1867 2 4.055410876183833 7.250951098878855 23.626927649345628 0 0 0
1868 2 3.4948952160123676 3.6371865917965893 14.621447669672786 0 0 0
1869 2 12.044179496501636 10.557873905480026 18.02370853362009 0 0 0
1870 2 4.362352766738681 7.227948450257377 15.291273355734445 0 0 0
1871 2 10.480563212981934 9.60001719977482 22.53826864781093 0 0 0
1872 2 10.877637094985165 6.216189889760192 18.010003998482905 0 0 0
1873 2 1.5822782001648537 4.468162259169217 12.223254079814232 0 0 0
1874 2 1.3605054662065053 5.8522291173542325 16.510335762247305 0 0 0
1875 2 10.118014798938889 10.340680211831287 14.655031146932908 0 0 0
1876 2 8.367472544783068 6.0211561204033135 23.40135259167727 0 0 0
1877 2 8.651273545340418 4.606411739268833 14.950633063379879 0 0 0
1878 2 2.3109906543323375 3.8924314555018853 21.233945654708595 0 0 0
1879 2 4.948720201985888 6.24792956682328 18.63212449240505 0 0 0
1880 2 4.225062542606535 9.094514413696904 15.767210985071847 0 0 0
1881 2 5.531203130266539 3.5706286060763186 17.403604981390806 0 0 0
1882 2 10.513704955064375 2.7383601313849315 23.41253585501866 0 0 0
1883 2 7.6099193306951625 8.193947584202768 16.8792205336296 0 0 0
1884 2 6.947140383236089 5.309966171352164 22.06748777321135 0 0 0
1885 2 1.850338496424686 6.463070828292697 18.161780833838353 0 0 0
1886 2 9.625248367722312 8.593838941788416 19.225403391061988 0 0 0
1887 2 8.273434280982448 4.734967110821991 19.36752102196477 0 0 0
1888 2 4.721922404718195 0.5840155872802872 24.144449240949932 0 0 0
1889 2 3.1905076294786494 10.971459036941035 16.047750490251488 0 0 0
1890 2 1.996977688786331 5.906961489193522 20.30761818533766 0 0 0
1891 2 6.358128492787586 7.7220027199325 12.250494815655724 0 0 0
1892 2 12.239054850087404 7.679657475128987 22.736870929795714 0 0 0
1893 2 6.150699935066724 2.8495696393765595 19.89451787249279 0 0 0
1894 2 6.737564562728239 1.6364207636018455 21.413455613330918 0 0 0
1895 2 1.1046058164573982 1.6394470553672091 18.153035821309363 0 0 0
1896 2 9.45801751025082 1.2860438731000092 18.86534738320876 0 0 0
1897 2 8.51732940533724 2.8974285471195476 24.397475141760392 0 0 0
1898 2 1.6232556648489742 9.705022006759254 13.541590694807454 0 0 0
1899 2 12.438737037460774 2.862292000639551 19.638611720270152 0 0 0
1900 2 11.894409377696451 1.1914887235382325 14.083562248824817 0 0 0
1901 2 7.688866165148114 1.6800645772746041 13.718342784997432 0 0 0
1902 2 9.535936277521868 9.67846148857257 20.98339692716637 0 0 0
1903 2 3.2813222327228355 10.886693985818454 19.644854155690343 0 0 0
1904 2 7.504574441924971 10.832012922844614 17.27212003174612 0 0 0
1905 2 7.162228447094246 9.59923730183233 19.99835089836926 0 0 0
1906 2 7.27003025705894 10.989325709193244 23.687310657374812 0 0 0
1907 2 5.450281264566233 1.2566465642163394 17.451330104891774 0 0 0
1908 2 1.532897181630324 11.500204483075434 14.683882370744149 0 0 0
1909 2 5.0845255061208805 10.395468173256228 19.085164633471145 0 0 0
1910 2 10.346644290057588 5.734175558645495 13.498697226541243 0 0 0
1911 2 0.45586663630143837 12.159320433667293 21.86350289666651 0 0 0
1912 2 6.453692604190036 1.636317884756594 15.339729147857183 0 0 0
1913 2 9.479984638249029 7.35807671841131 12.061147320790104 0 0 0
1914 2 10.118396927601745 6.517977991302123 20.574545518567533 0 0 0
1915 2 2.087272627201319 7.7708025797535525 24.725416805808173 0 0 0
1916 2 0.7706380864894503 10.238662976303422 22.750896057462718 0 0 0
1917 2 10.707910548415283 12.759005125411335 20.82218765391218 0 0 0
1918 2 1.197906968408543 1.865636247091137 16.153211233348493 0 0 0
1919 2 9.863384710197053 2.780843300339928 16.438230749372646 0 0 0
1920 2 1.0651121974429634 9.659399107205232 19.766178593502364 0 0 0
3457 1 12.59759476835503 2.6111318685187523 27.286446360740417 0 0 0
3458 1 5.700923793310539 5.786137874910768 27.45097031444561 0 0 0
3459 1 12.049658158130198 7.669612065213149 27.38811975474593 0 0 0
3460 1 2.665252241377073 4.372248063535194 29.59538794594853 0 0 0
3461 1 3.859613572216428 11.922044591785719 36.97629774803444 0 0 0
3462 1 7.169573044250661 37.09913738784791 27.152922396727124 0 -1 0
3463 1 5.7787220972195 10.113111324115971 35.51573950447864 0 0 0
3464 1 5.8200157772648975 10.85714404697946 26.20510771696143 0 0 0
3465 1 9.173340707702138 12.009064435184799 26.2199843264059 0 0 0
3466 1 11.896758041564897 0.8283855048572227 33.84100630410958 0 0 0
3467 1 5.346423654144876 7.5328258947062645 36.46324240507151 0 0 0
3468 1 3.8233167301741227 3.2435052634369743 26.246521107191292 0 0 0
3469 1 12.3095724972173 10.563659755882341 29.747543911067908 0 0 0
3470 1 3.9511508491157477 8.012488571453588 27.229462782575325 0 0 0
3471 1 9.48323774237992 9.65492808329073 35.05256671717041 0 0 0
3472 1 11.310024725951395 5.506473336383528 30.192590783384862 0 0 0
3473 1 0.8946033258072984 3.458350877427735 25.048044004722655 0 0 0
3474 1 1.0436377764910791 6.396553220439903 29.281967564425727 0 0 0
3475 1 10.350211724526241 9.7689936505504 27.691621535556838 0 0 0
3476 1 8.099094283920236 5.505122912961006 35.15556217129654 0 0 0
3477 1 8.686698849073268 5.0410849447972454 26.47465521518651 0 0 0
3478 1 2.930451273813982 2.882708036875297 33.72785014162292 0 0 0
3479 1 4.9396045269319195 6.723501244667548 32.5430278666618 0 0 0
3480 1 4.320008394897572 10.378989910349025 28.438999961166846 0 0 0
3481 1 5.542431982000312 4.524862524429127 29.87233172409639 0 0 0
3482 1 11.861226088711842 2.481256318165547 36.27422238860156 0 0 0
3483 1 7.758292777098603 8.807754906071883 28.370314130199255 0 0 0
3484 1 5.4610323281866915 5.471959175160217 34.72739042476155 0 0 0
3485 1 2.2669126825327908 6.97805300064094 31.79510562019828 0 0 0
3486 1 10.316770532056188 7.607869050548848 31.635157363462554 0 0 0
3487 1 7.388908687498963 4.186010159407199 31.742364268156596 0 0 0
3488 1 5.272917849629499 2.8418617354046507 36.72949027290229 0 0 0
3489 1 1.7870610580465154 11.578849647829138 28.626739293564533 0 0 0
3490 1 1.7851817967123342 5.357422504397288 33.79477025580971 0 0 0
3491 1 7.034215707243076 8.636053290153159 25.881035338072415 0 0 0
3492 1 12.131367605698255 6.403656967635449 35.379587268605626 0 0 0
3493 1 5.410663109796665 2.5920273415718316 32.876302584504884 0 0 0
3494 1 7.811870130920382 0.9714434717530069 34.244615899523495 0 0 0
3495 1 1.203110293874386 1.8955321024085676 32.01406661501149 0 0 0
3496 1 9.272553265021411 2.349606114507077 31.213682531936332 0 0 0
3497 1 8.9745816294489 2.9217601690004398 35.56486760364602 0 0 0
3498 1 1.5994179531815367 8.46999506903811 25.82218281009695 0 0 0
3499 1 11.505246369393879 3.697397121382147 31.81724502603224 0 0 0
3500 1 11.931083082491181 0.576394077797355 25.845334432109063 0 0 0
3501 1 7.664127747979476 2.4626645058309595 25.332147696412292 0 0 0
3502 1 8.969203110427602 9.689540334278469 32.503740920605004 0 0 0
3503 1 2.3929401427877743 11.038285841828412 32.1732377470864 0 0 0
3504 1 7.668358143769012 11.19404725733309 29.26377290631909 0 0 0
3505 1 6.2588898597056195 9.409839361195413 32.93400855287124 0 0 0
3506 1 7.896644521611776 11.504033718664319 35.921381697116985 0 0 0
3507 1 5.446293161233863 0.9454540062272523 30.761266345887876 0 0 0
3508 1 1.393037799378364 11.105821051409126 26.02158274027553 0 0 0
3509 1 4.776308236058754 10.852121224164405 31.042734877564115 0 0 0
3510 1 10.815026642115413 6.05283571713069 25.25630321092142 0 0 0
3511 1 1.2340582458012654 11.436405659015394 35.337498238200084 0 0 0
3512 1 5.554381827425943 2.1344807612658867 28.33146664159844 0 0 0
3513 1 8.657358755124319 7.612782278415167 36.56752443171724 0 0 0